
  ___ ___ ___ _ _ _  
 |   |   |_  | | | | 
 | | | | | . | | | | 
 |__ |  _|___|_____|  22.8.0
 |___|_|             

User:   tha@20175329-p01
Date:   Fri Jan 27 15:01:35 2023
Arch:   x86_64
Pid:    24238
CWD:    /mnt/d/work/w23_DFT
Python: 3.10.8
gpaw:   /home/tha/app/miniconda3/envs/py310ase/lib/python3.10/site-packages/gpaw
_gpaw:  /home/tha/app/miniconda3/envs/py310ase/lib/python3.10/site-packages/
        _gpaw.cpython-310-x86_64-linux-gnu.so
ase:    /home/tha/app/miniconda3/envs/py310ase/lib/python3.10/site-packages/ase (version 3.22.1)
numpy:  /home/tha/app/miniconda3/envs/py310ase/lib/python3.10/site-packages/numpy (version 1.24.1)
scipy:  /home/tha/app/miniconda3/envs/py310ase/lib/python3.10/site-packages/scipy (version 1.10.0)
libxc:  5.2.3
units:  Angstrom and eV
cores: 1
OpenMP: True
OMP_NUM_THREADS: 1

Input parameters:
  kpts: [1 1 8]
  mode: {ecut: 200.0,
         name: pw}

System changes: positions, numbers, cell, pbc, initial_charges, initial_magmoms 

Initialize ...

species:
  H:
    name: Hydrogen
    id: 4766778ce56282eaa64abeb28b7c1de3
    Z: 1.0
    valence: 1
    core: 0
    charge: 0.0
    file: /home/tha/PAWDATA/gpaw-setups-0.9.20000/H.LDA.gz
    compensation charges: {type: gauss,
                           rc: 0.15,
                           lmax: 2}
    cutoffs: {filter: 0.85,
              core: 0.53}
    valence states:
      #              energy  rcut
      - 1s(1.00)    -6.353   0.476
      -  s          20.858   0.476
      -  p           0.000   0.476
  
    # Using partial waves for H as LCAO basis

Reference energy: -12.128958  # eV

Spin-paired calculation

Convergence criteria:
 Maximum [total energy] change in last 3 cyles: 0.0005 eV / electron
 Maximum integral of absolute [dens]ity change: 0.0001 electrons / valence electron
 Maximum integral of absolute [eigenst]ate change: 4e-08 eV^2 / valence electron
 Maximum number of scf [iter]ations: 333
 (Square brackets indicate name in SCF output, whereas a 'c' in
 the SCF output indicates the quantity has converged.)

Symmetries present (total): 16

  ( 1  0  0)  ( 1  0  0)  ( 1  0  0)  ( 1  0  0)  ( 0  1  0)  ( 0  1  0)
  ( 0  1  0)  ( 0  1  0)  ( 0 -1  0)  ( 0 -1  0)  ( 1  0  0)  ( 1  0  0)
  ( 0  0  1)  ( 0  0 -1)  ( 0  0  1)  ( 0  0 -1)  ( 0  0  1)  ( 0  0 -1)

  ( 0  1  0)  ( 0  1  0)  ( 0 -1  0)  ( 0 -1  0)  ( 0 -1  0)  ( 0 -1  0)
  (-1  0  0)  (-1  0  0)  ( 1  0  0)  ( 1  0  0)  (-1  0  0)  (-1  0  0)
  ( 0  0  1)  ( 0  0 -1)  ( 0  0  1)  ( 0  0 -1)  ( 0  0  1)  ( 0  0 -1)

  (-1  0  0)  (-1  0  0)  (-1  0  0)  (-1  0  0)
  ( 0  1  0)  ( 0  1  0)  ( 0 -1  0)  ( 0 -1  0)
  ( 0  0  1)  ( 0  0 -1)  ( 0  0  1)  ( 0  0 -1)

8 k-points: 1 x 1 x 8 Monkhorst-Pack grid
4 k-points in the irreducible part of the Brillouin zone
       k-points in crystal coordinates                weights
   0:     0.00000000    0.00000000    0.06250000          2/8
   1:     0.00000000    0.00000000    0.18750000          2/8
   2:     0.00000000    0.00000000    0.31250000          2/8
   3:     0.00000000    0.00000000    0.43750000          2/8

Wave functions: Plane wave expansion
  Cutoff energy: 200.000 eV
  Number of coefficients (min, max): 30, 42
  Pulay-stress correction: 0.000000 eV/Ang^3 (de/decut=0.000000)
  Using FFTW library
  ScaLapack parameters: grid=1x1, blocksize=None
  Wavefunction extrapolation:
    Improved wavefunction reuse through dual PAW basis 

Occupation numbers: Fermi-Dirac:
  width: 0.1000  # eV
 

Eigensolver
   Davidson(niter=2) 

Densities:
  Coarse grid: 9*9*3 grid
  Fine grid: 18*18*6 grid
  Total Charge: 0.000000 

Density mixing:
  Method: separate
  Backend: pulay
  Linear mixing parameter: 0.05
  old densities: 5
  Damping of long wavelength oscillations: 50 

Hamiltonian:
  XC and Coulomb potentials evaluated on a 18*18*6 grid
  Using the LDA Exchange-Correlation functional
  External potential:
    NoExternalPotential
 

Memory estimate:
  Process memory now: 97.86 MiB
  Calculator: 0.16 MiB
    Density: 0.10 MiB
      Arrays: 0.05 MiB
      Localized functions: 0.04 MiB
      Mixer: 0.02 MiB
    Hamiltonian: 0.03 MiB
      Arrays: 0.03 MiB
      XC: 0.00 MiB
      Poisson: 0.00 MiB
      vbar: 0.00 MiB
    Wavefunctions: 0.03 MiB
      Arrays psit_nG: 0.00 MiB
      Eigensolver: 0.00 MiB
      Projections: 0.00 MiB
      Projectors: 0.01 MiB
      PW-descriptor: 0.01 MiB

Total number of cores used: 1

Number of atoms: 1
Number of atomic orbitals: 1
Number of bands in calculation: 1
Number of valence electrons: 1
Bands to converge: occupied

... initialized

Initializing position-dependent things.

Density initialized from atomic densities
Creating initial wave functions:
  1 band from LCAO basis set

   .-----.  
  /.-----.  
 */     /   
 H-----*    

Positions:
   0 H      0.000000    0.000000    0.000000    ( 0.0000,  0.0000,  0.0000)

Unit cell:
           periodic     x           y           z      points  spacing
  1. axis:    no     2.500000    0.000000    0.000000     9     0.2778
  2. axis:    no     0.000000    2.500000    0.000000     9     0.2778
  3. axis:    yes    0.000000    0.000000    0.900000     3     0.3000

  Lengths:   2.500000   2.500000   0.900000
  Angles:   90.000000  90.000000  90.000000

Effective grid spacing dv^(1/3) = 0.2850

     iter     time        total  log10-change:
                         energy  eigst   dens
iter:   1 15:01:35    -4.727703
iter:   2 15:01:35    -4.731633  -1.25  -0.92
iter:   3 15:01:35    -4.758750  -2.10  -0.89
iter:   4 15:01:35    -4.711330  -1.39  -0.71
iter:   5 15:01:35    -4.714500  -2.66  -1.81
iter:   6 15:01:35    -4.710863  -2.65  -1.34
iter:   7 15:01:35    -4.710868  -5.03  -2.93
iter:   8 15:01:35    -4.710868c -7.17  -2.82
iter:   9 15:01:35    -4.710864c -5.83  -2.82
iter:  10 15:01:35    -4.710864c -7.43c -3.36
iter:  11 15:01:35    -4.710864c -7.46c -3.47
iter:  12 15:01:35    -4.710864c -7.42c -3.75
iter:  13 15:01:35    -4.710864c -9.06c -5.12c

Converged after 13 iterations.

Dipole moment: (0.000000, -0.000000, 0.000000) |e|*Ang

Energy contributions relative to reference atoms: (reference = -12.128958)

Kinetic:         -0.546866
Potential:       -1.736021
External:        +0.000000
XC:              -2.418611
Entropy (-ST):   -0.000000
Local:           -0.009365
--------------------------
Free energy:     -4.710864
Extrapolated:    -4.710864

Showing only first 2 kpts
 Kpt  Band  Eigenvalues  Occupancy
  0     0    -13.13573    2.00000

  1     0     -7.39838    2.00000


Fermi level: -2.20474

No gap

Forces in eV/Ang:
  0 H     0.00000    0.00000    0.00000

Stress tensor:
     0.666767     0.000000     0.000000
     0.000000     0.666767     0.000000
     0.000000     0.000000    -0.501782
Timing:                              incl.     excl.
-----------------------------------------------------------
Forces:                              0.001     0.001   0.3% |
Hamiltonian:                         0.003     0.000   0.0% |
 Atomic:                             0.003     0.000   0.1% |
  XC Correction:                     0.002     0.002   0.7% |
 Calculate atomic Hamiltonians:      0.000     0.000   0.0% |
 Communicate:                        0.000     0.000   0.0% |
 Initialize Hamiltonian:             0.000     0.000   0.0% |
 Poisson:                            0.000     0.000   0.0% |
 XC 3D grid:                         0.000     0.000   0.1% |
LCAO initialization:                 0.064     0.002   0.7% |
 LCAO eigensolver:                   0.004     0.000   0.1% |
  Calculate projections:             0.000     0.000   0.0% |
  DenseAtomicCorrection:             0.000     0.000   0.0% |
  Distribute overlap matrix:         0.000     0.000   0.0% |
  Orbital Layouts:                   0.000     0.000   0.1% |
  Potential matrix:                  0.003     0.003   1.0% |
  Sum over cells:                    0.000     0.000   0.1% |
 LCAO to grid:                       0.001     0.001   0.2% |
 Set positions (LCAO WFS):           0.057     0.004   1.4% ||
  Basic WFS set positions:           0.000     0.000   0.1% |
  Basis functions set positions:     0.000     0.000   0.0% |
  P tci:                             0.005     0.005   1.7% ||
  ST tci:                            0.029     0.029   8.9% |---|
  mktci:                             0.018     0.018   5.6% |-|
PWDescriptor:                        0.012     0.012   3.7% ||
SCF-cycle:                           0.113     0.008   2.3% ||
 Davidson:                           0.057     0.018   5.5% |-|
  Apply H:                           0.002     0.001   0.4% |
   HMM T:                            0.000     0.000   0.1% |
  Subspace diag:                     0.010     0.002   0.5% |
   calc_h_matrix:                    0.005     0.003   1.0% |
    Apply H:                         0.002     0.001   0.4% |
     HMM T:                          0.000     0.000   0.1% |
   diagonalize:                      0.002     0.002   0.7% |
   rotate_psi:                       0.001     0.001   0.4% |
  calc. matrices:                    0.023     0.020   6.2% |-|
   Apply H:                          0.003     0.002   0.8% |
    HMM T:                           0.001     0.001   0.2% |
  diagonalize:                       0.004     0.004   1.1% |
  rotate_psi:                        0.001     0.001   0.4% |
 Density:                            0.011     0.000   0.0% |
  Atomic density matrices:           0.003     0.003   0.9% |
  Mix:                               0.004     0.004   1.2% |
  Multipole moments:                 0.000     0.000   0.1% |
  Pseudo density:                    0.004     0.001   0.3% |
   Symmetrize density:               0.002     0.002   0.8% |
 Hamiltonian:                        0.036     0.001   0.4% |
  Atomic:                            0.031     0.002   0.7% |
   XC Correction:                    0.028     0.028   8.8% |---|
  Calculate atomic Hamiltonians:     0.002     0.002   0.5% |
  Communicate:                       0.000     0.000   0.0% |
  Poisson:                           0.000     0.000   0.1% |
  XC 3D grid:                        0.003     0.003   0.8% |
 Orthonormalize:                     0.001     0.000   0.0% |
  calc_s_matrix:                     0.000     0.000   0.1% |
  inverse-cholesky:                  0.000     0.000   0.0% |
  projections:                       0.000     0.000   0.1% |
  rotate_psi_s:                      0.000     0.000   0.0% |
Set symmetry:                        0.002     0.002   0.8% |
Stress:                              0.012     0.000   0.0% |
 Stress tensor:                      0.012     0.012   3.6% ||
Other:                               0.115     0.115  35.7% |-------------|
-----------------------------------------------------------
Total:                                         0.322 100.0%

Memory usage: 102.18 MiB
Date: Fri Jan 27 15:01:35 2023
