
  ___ ___ ___ _ _ _  
 |   |   |_  | | | | 
 | | | | | . | | | | 
 |__ |  _|___|_____|  22.8.0
 |___|_|             

User:   tha@Tha-DELL
Date:   Sat Jan 28 23:41:36 2023
Arch:   x86_64
Pid:    1336
CWD:    /mnt/c/DATA/work/lec_note/note_dft/notebook_kitchin
Python: 3.10.8
gpaw:   /home/tha/app/miniconda3/envs/py310gpaw/lib/python3.10/site-packages/gpaw
_gpaw:  /home/tha/app/miniconda3/envs/py310gpaw/lib/python3.10/site-packages/
        _gpaw.cpython-310-x86_64-linux-gnu.so
ase:    /home/tha/app/miniconda3/envs/py310gpaw/lib/python3.10/site-packages/ase (version 3.22.1)
numpy:  /home/tha/app/miniconda3/envs/py310gpaw/lib/python3.10/site-packages/numpy (version 1.23.5)
scipy:  /home/tha/app/miniconda3/envs/py310gpaw/lib/python3.10/site-packages/scipy (version 1.9.3)
libxc:  5.2.3
units:  Angstrom and eV
cores: 1
OpenMP: True
OMP_NUM_THREADS: 1

Input parameters:
  mode: {ecut: 550.0,
         name: pw}
  nbands: 6
  occupations: {name: methfessel-paxton,
                order: 0,
                width: 0.01}
  xc: PBE

System changes: positions, numbers, cell, pbc, initial_charges, initial_magmoms 

Initialize ...

species:
  C:
    name: Carbon
    id: 4aa54d4b901d75f77cc0ea3eec22967b
    Z: 6.0
    valence: 4
    core: 2
    charge: 0.0
    file: /home/tha/app/miniconda3/envs/py310gpaw/share/gpaw/C.PBE.gz
    compensation charges: {type: gauss,
                           rc: 0.20,
                           lmax: 2}
    cutoffs: {filter: 1.14,
              core: 1.14}
    valence states:
      #              energy  rcut
      - 2s(2.00)   -13.751   0.635
      - 2p(2.00)    -5.284   0.635
      -  s          13.461   0.635
      -  p          21.927   0.635
      -  d           0.000   0.635
  
    # Using partial waves for C as LCAO basis

  O:
    name: Oxygen
    id: 32ecd46bf208036f09c70b0ec9a88b78
    Z: 8.0
    valence: 6
    core: 2
    charge: 0.0
    file: /home/tha/app/miniconda3/envs/py310gpaw/share/gpaw/O.PBE.gz
    compensation charges: {type: gauss,
                           rc: 0.21,
                           lmax: 2}
    cutoffs: {filter: 1.17,
              core: 0.83}
    valence states:
      #              energy  rcut
      - 2s(2.00)   -23.961   0.688
      - 2p(4.00)    -9.029   0.598
      -  s           3.251   0.688
      -  p          18.182   0.598
      -  d           0.000   0.619
  
    # Using partial waves for O as LCAO basis

Reference energy: -3068.480417  # eV

Spin-paired calculation

Convergence criteria:
 Maximum [total energy] change in last 3 cyles: 0.0005 eV / electron
 Maximum integral of absolute [dens]ity change: 0.0001 electrons / valence electron
 Maximum integral of absolute [eigenst]ate change: 4e-08 eV^2 / valence electron
 Maximum number of scf [iter]ations: 333
 (Square brackets indicate name in SCF output, whereas a 'c' in
 the SCF output indicates the quantity has converged.)

Symmetries present (total): 8

  ( 1  0  0)  ( 1  0  0)  ( 1  0  0)  ( 1  0  0)  ( 1  0  0)  ( 1  0  0)
  ( 0  1  0)  ( 0  1  0)  ( 0  0  1)  ( 0  0  1)  ( 0  0 -1)  ( 0  0 -1)
  ( 0  0  1)  ( 0  0 -1)  ( 0  1  0)  ( 0 -1  0)  ( 0  1  0)  ( 0 -1  0)

  ( 1  0  0)  ( 1  0  0)
  ( 0 -1  0)  ( 0 -1  0)
  ( 0  0  1)  ( 0  0 -1)

1 k-point (Gamma)
1 k-point in the irreducible part of the Brillouin zone
       k-points in crystal coordinates                weights
   0:     0.00000000    0.00000000    0.00000000          1/1

Wave functions: Plane wave expansion
  Cutoff energy: 550.000 eV
  Number of coefficients: 6355 (reduced to 3178)
  Pulay-stress correction: 0.000000 eV/Ang^3 (de/decut=0.000000)
  Using FFTW library
  ScaLapack parameters: grid=1x1, blocksize=None
  Wavefunction extrapolation:
    Improved wavefunction reuse through dual PAW basis 

Occupation numbers: Methfessel-Paxton:
  width: 0.0100  # eV
  order: 0
 

Eigensolver
   Davidson(niter=2) 

Densities:
  Coarse grid: 35*35*35 grid
  Fine grid: 70*70*70 grid
  Total Charge: 0.000000 

Density mixing:
  Method: separate
  Backend: pulay
  Linear mixing parameter: 0.05
  old densities: 5
  Damping of long wavelength oscillations: 50 

Hamiltonian:
  XC and Coulomb potentials evaluated on a 70*70*70 grid
  Using the PBE Exchange-Correlation functional
  External potential:
    NoExternalPotential
 

XC parameters: PBE with 2 nearest neighbor stencil

Memory estimate:
  Process memory now: 216.08 MiB
  Calculator: 28.12 MiB
    Density: 20.19 MiB
      Arrays: 8.50 MiB
      Localized functions: 8.41 MiB
      Mixer: 3.27 MiB
    Hamiltonian: 5.77 MiB
      Arrays: 5.56 MiB
      XC: 0.00 MiB
      Poisson: 0.00 MiB
      vbar: 0.20 MiB
    Wavefunctions: 2.17 MiB
      Arrays psit_nG: 0.29 MiB
      Eigensolver: 0.54 MiB
      Projections: 0.00 MiB
      Projectors: 0.46 MiB
      PW-descriptor: 0.88 MiB

Total number of cores used: 1

Number of atoms: 2
Number of atomic orbitals: 8
Number of bands in calculation: 6
Number of valence electrons: 10
Bands to converge: occupied

... initialized

Initializing position-dependent things.

Density initialized from atomic densities
Creating initial wave functions:
  6 bands from LCAO basis set

     .--------------.  
    /|              |  
   / |              |  
  /  |              |  
 *   |              |  
 |   |              |  
 |   |              |  
 |   .--------------.  
 |  /              /   
 | /              /    
 |/              /     
 C--O-----------*      

Positions:
   0 C      0.000000    0.000000    0.000000    ( 0.0000,  0.0000,  0.0000)
   1 O      1.050000    0.000000    0.000000    ( 0.0000,  0.0000,  0.0000)

Unit cell:
           periodic     x           y           z      points  spacing
  1. axis:    no     6.000000    0.000000    0.000000    35     0.1714
  2. axis:    no     0.000000    6.000000    0.000000    35     0.1714
  3. axis:    no     0.000000    0.000000    6.000000    35     0.1714

  Lengths:   6.000000   6.000000   6.000000
  Angles:   90.000000  90.000000  90.000000

Effective grid spacing dv^(1/3) = 0.1714

     iter     time        total  log10-change:
                         energy  eigst   dens
iter:   1 23:41:37   -15.494183
iter:   2 23:41:38   -15.370266  -0.93  -0.86
iter:   3 23:41:38   -14.648858  -0.93  -0.89
iter:   4 23:41:38   -14.484228  -1.16  -1.12
iter:   5 23:41:38   -14.448635  -1.03  -1.32
iter:   6 23:41:39   -14.478387  -1.39  -1.61
iter:   7 23:41:39   -14.505047  -1.17  -1.49
iter:   8 23:41:39   -14.398649  -1.38  -1.50
iter:   9 23:41:39   -14.400793  -2.24  -2.49
iter:  10 23:41:40   -14.400559c -3.83  -2.63
iter:  11 23:41:40   -14.401206c -3.47  -2.80
iter:  12 23:41:40   -14.400624c -4.08  -2.53
iter:  13 23:41:40   -14.400662c -5.45  -2.80
iter:  14 23:41:41   -14.402043c -3.00  -2.80
iter:  15 23:41:41   -14.400644c -3.01  -2.41
iter:  16 23:41:41   -14.400549c -4.80  -2.99
iter:  17 23:41:42   -14.400546c -5.17  -3.62
iter:  18 23:41:42   -14.400546c -6.72  -4.03c
iter:  19 23:41:42   -14.400546c -6.57  -4.06c
iter:  20 23:41:42   -14.400546c -7.72c -4.10c

Converged after 20 iterations.

Dipole moment: (-0.664671, 0.000000, -0.000000) |e|*Ang

Energy contributions relative to reference atoms: (reference = -3068.480417)

Kinetic:        +29.924138
Potential:      -30.582562
External:        +0.000000
XC:             -13.823226
Entropy (-ST):   +0.000000
Local:           +0.081104
--------------------------
Free energy:    -14.400546
Extrapolated:   -14.400546

 Band  Eigenvalues  Occupancy
    0    -29.67745    2.00000
    1    -13.28216    2.00000
    2    -11.78604    2.00000
    3    -11.78604    2.00000
    4     -8.07783    2.00000
    5     -0.28990    0.00000

Fermi level: -5.94333

Gap: 7.788 eV
Transition (v -> c):
  (s=0, k=0, n=4, [0.00, 0.00, 0.00]) -> (s=0, k=0, n=5, [0.00, 0.00, 0.00])
System changes: positions 

Initializing position-dependent things.

Density initialized from wave functions
     .--------------.  
    /|              |  
   / |              |  
  /  |              |  
 *   |              |  
 |   |              |  
 |   |              |  
 |   .--------------.  
 |  /              /   
 | /              /    
 |/              /     
 C--O-----------*      

Positions:
   0 C      0.000000    0.000000    0.000000    ( 0.0000,  0.0000,  0.0000)
   1 O      1.100000    0.000000    0.000000    ( 0.0000,  0.0000,  0.0000)

Unit cell:
           periodic     x           y           z      points  spacing
  1. axis:    no     6.000000    0.000000    0.000000    35     0.1714
  2. axis:    no     0.000000    6.000000    0.000000    35     0.1714
  3. axis:    no     0.000000    0.000000    6.000000    35     0.1714

  Lengths:   6.000000   6.000000   6.000000
  Angles:   90.000000  90.000000  90.000000

Effective grid spacing dv^(1/3) = 0.1714

     iter     time        total  log10-change:
                         energy  eigst   dens
iter:   1 23:41:43   -14.877764  -1.10
iter:   2 23:41:43   -14.876002  -2.79  -1.76
iter:   3 23:41:43   -14.863911  -2.13  -1.78
iter:   4 23:41:43   -14.862117  -3.79  -2.21
iter:   5 23:41:44   -14.864045c -2.40  -2.28
iter:   6 23:41:44   -14.861422c -2.68  -2.13
iter:   7 23:41:44   -14.861077c -3.52  -2.43
iter:   8 23:41:44   -14.860863c -3.20  -2.47
iter:   9 23:41:45   -14.860547c -4.78  -2.70
iter:  10 23:41:45   -14.860466c -4.04  -2.94
iter:  11 23:41:45   -14.860475c -4.61  -3.34
iter:  12 23:41:45   -14.860465c -5.88  -3.30
iter:  13 23:41:46   -14.860456c -5.39  -3.49
iter:  14 23:41:46   -14.860456c -6.23  -4.17c
iter:  15 23:41:46   -14.860456c -6.62  -4.18c
iter:  16 23:41:46   -14.860456c -8.20c -4.08c

Converged after 16 iterations.

Dipole moment: (-0.610488, 0.000000, 0.000000) |e|*Ang

Energy contributions relative to reference atoms: (reference = -3068.480417)

Kinetic:        +20.796239
Potential:      -23.562985
External:        +0.000000
XC:             -12.190431
Entropy (-ST):   +0.000000
Local:           +0.096721
--------------------------
Free energy:    -14.860456
Extrapolated:   -14.860456

 Band  Eigenvalues  Occupancy
    0    -28.94960    2.00000
    1    -13.29937    2.00000
    2    -11.29862    2.00000
    3    -11.29862    2.00000
    4     -8.19511    2.00000
    5     -0.82690    0.00000

Fermi level: -5.94333

Gap: 7.368 eV
Transition (v -> c):
  (s=0, k=0, n=4, [0.00, 0.00, 0.00]) -> (s=0, k=0, n=5, [0.00, 0.00, 0.00])
System changes: positions 

Initializing position-dependent things.

Density initialized from wave functions
     .--------------.  
    /|              |  
   / |              |  
  /  |              |  
 *   |              |  
 |   |              |  
 |   |              |  
 |   .--------------.  
 |  /              /   
 | /              /    
 |/              /     
 C--O-----------*      

Positions:
   0 C      0.000000    0.000000    0.000000    ( 0.0000,  0.0000,  0.0000)
   1 O      1.150000    0.000000    0.000000    ( 0.0000,  0.0000,  0.0000)

Unit cell:
           periodic     x           y           z      points  spacing
  1. axis:    no     6.000000    0.000000    0.000000    35     0.1714
  2. axis:    no     0.000000    6.000000    0.000000    35     0.1714
  3. axis:    no     0.000000    0.000000    6.000000    35     0.1714

  Lengths:   6.000000   6.000000   6.000000
  Angles:   90.000000  90.000000  90.000000

Effective grid spacing dv^(1/3) = 0.1714

     iter     time        total  log10-change:
                         energy  eigst   dens
iter:   1 23:41:47   -14.959815  -1.15
iter:   2 23:41:47   -14.958227  -2.83  -1.78
iter:   3 23:41:47   -14.945158  -2.25  -1.79
iter:   4 23:41:47   -14.944236  -3.85  -2.33
iter:   5 23:41:47   -14.945581c -2.66  -2.38
iter:   6 23:41:48   -14.943825c -2.94  -2.22
iter:   7 23:41:48   -14.944716c -3.02  -2.56
iter:   8 23:41:48   -14.943534c -2.96  -2.38
iter:   9 23:41:48   -14.943409c -4.86  -2.90
iter:  10 23:41:49   -14.943364c -4.79  -3.12
iter:  11 23:41:49   -14.943365c -5.47  -3.52
iter:  12 23:41:49   -14.943385c -5.12  -3.58
iter:  13 23:41:49   -14.943368c -4.57  -3.25
iter:  14 23:41:50   -14.943379c -5.22  -3.49
iter:  15 23:41:50   -14.943363c -5.07  -3.35
iter:  16 23:41:50   -14.943363c -6.56  -4.16c
iter:  17 23:41:50   -14.943364c -6.82  -4.14c
iter:  18 23:41:50   -14.943363c -6.28  -4.03c
iter:  19 23:41:51   -14.943363c -8.17c -4.82c

Converged after 19 iterations.

Dipole moment: (-0.560262, -0.000000, 0.000000) |e|*Ang

Energy contributions relative to reference atoms: (reference = -3068.480417)

Kinetic:        +13.497065
Potential:      -17.801630
External:        +0.000000
XC:             -10.748162
Entropy (-ST):   +0.000000
Local:           +0.109365
--------------------------
Free energy:    -14.943363
Extrapolated:   -14.943363

 Band  Eigenvalues  Occupancy
    0    -28.22881    2.00000
    1    -13.31908    2.00000
    2    -10.85070    2.00000
    3    -10.85070    2.00000
    4     -8.30357    2.00000
    5     -1.32596    0.00000

Fermi level: -5.94333

Gap: 6.978 eV
Transition (v -> c):
  (s=0, k=0, n=4, [0.00, 0.00, 0.00]) -> (s=0, k=0, n=5, [0.00, 0.00, 0.00])
System changes: positions 

Initializing position-dependent things.

Density initialized from wave functions
     .--------------.  
    /|              |  
   / |              |  
  /  |              |  
 *   |              |  
 |   |              |  
 |   |              |  
 |   .--------------.  
 |  /              /   
 | /              /    
 |/              /     
 C--O-----------*      

Positions:
   0 C      0.000000    0.000000    0.000000    ( 0.0000,  0.0000,  0.0000)
   1 O      1.200000    0.000000    0.000000    ( 0.0000,  0.0000,  0.0000)

Unit cell:
           periodic     x           y           z      points  spacing
  1. axis:    no     6.000000    0.000000    0.000000    35     0.1714
  2. axis:    no     0.000000    6.000000    0.000000    35     0.1714
  3. axis:    no     0.000000    0.000000    6.000000    35     0.1714

  Lengths:   6.000000   6.000000   6.000000
  Angles:   90.000000  90.000000  90.000000

Effective grid spacing dv^(1/3) = 0.1714

     iter     time        total  log10-change:
                         energy  eigst   dens
iter:   1 23:41:51   -14.778155  -1.20
iter:   2 23:41:51   -14.776660  -2.85  -1.79
iter:   3 23:41:51   -14.762706  -2.30  -1.80
iter:   4 23:41:52   -14.762294  -3.91  -2.49
iter:   5 23:41:52   -14.762066c -4.13  -2.54
iter:   6 23:41:52   -14.762286c -3.84  -2.61
iter:   7 23:41:52   -14.762233c -3.88  -2.65
iter:   8 23:41:53   -14.762039c -4.12  -2.79
iter:   9 23:41:53   -14.762044c -4.94  -3.73
iter:  10 23:41:53   -14.762050c -5.46  -3.66
iter:  11 23:41:53   -14.762047c -6.69  -3.48
iter:  12 23:41:54   -14.762043c -6.07  -3.55
iter:  13 23:41:54   -14.762048c -5.21  -3.78
iter:  14 23:41:54   -14.762043c -5.45  -3.58
iter:  15 23:41:54   -14.762043c -6.40  -4.24c
iter:  16 23:41:55   -14.762044c -6.10  -4.29c
iter:  17 23:41:55   -14.762043c -7.77c -4.02c

Converged after 17 iterations.

Dipole moment: (-0.511999, -0.000000, 0.000000) |e|*Ang

Energy contributions relative to reference atoms: (reference = -3068.480417)

Kinetic:         +7.698814
Potential:      -13.101606
External:        +0.000000
XC:              -9.475088
Entropy (-ST):   +0.000000
Local:           +0.115837
--------------------------
Free energy:    -14.762043
Extrapolated:   -14.762043

 Band  Eigenvalues  Occupancy
    0    -27.52749    2.00000
    1    -13.34322    2.00000
    2    -10.43671    2.00000
    3    -10.43671    2.00000
    4     -8.39928    2.00000
    5     -1.78414    0.00000

Fermi level: -5.94333

Gap: 6.615 eV
Transition (v -> c):
  (s=0, k=0, n=4, [0.00, 0.00, 0.00]) -> (s=0, k=0, n=5, [0.00, 0.00, 0.00])
System changes: positions 

Initializing position-dependent things.

Density initialized from wave functions
     .--------------.  
    /|              |  
   / |              |  
  /  |              |  
 *   |              |  
 |   |              |  
 |   |              |  
 |   .--------------.  
 |  /              /   
 | /              /    
 |/              /     
 C--O-----------*      

Positions:
   0 C      0.000000    0.000000    0.000000    ( 0.0000,  0.0000,  0.0000)
   1 O      1.250000    0.000000    0.000000    ( 0.0000,  0.0000,  0.0000)

Unit cell:
           periodic     x           y           z      points  spacing
  1. axis:    no     6.000000    0.000000    0.000000    35     0.1714
  2. axis:    no     0.000000    6.000000    0.000000    35     0.1714
  3. axis:    no     0.000000    0.000000    6.000000    35     0.1714

  Lengths:   6.000000   6.000000   6.000000
  Angles:   90.000000  90.000000  90.000000

Effective grid spacing dv^(1/3) = 0.1714

     iter     time        total  log10-change:
                         energy  eigst   dens
iter:   1 23:41:55   -14.415200  -1.23
iter:   2 23:41:55   -14.413711  -2.87  -1.80
iter:   3 23:41:56   -14.399534  -2.25  -1.81
iter:   4 23:41:56   -14.399117  -3.99  -2.55
iter:   5 23:41:56   -14.399235c -4.54  -2.67
iter:   6 23:41:56   -14.399126c -3.98  -2.63
iter:   7 23:41:56   -14.399088c -4.72  -3.05
iter:   8 23:41:57   -14.399075c -4.89  -3.25
iter:   9 23:41:57   -14.399070c -5.89  -3.48
iter:  10 23:41:57   -14.399071c -6.05  -3.76
iter:  11 23:41:57   -14.399070c -6.12  -3.75
iter:  12 23:41:58   -14.399070c -7.68c -4.32c

Converged after 12 iterations.

Dipole moment: (-0.465096, 0.000000, 0.000000) |e|*Ang

Energy contributions relative to reference atoms: (reference = -3068.480417)

Kinetic:         +3.115328
Potential:       -9.287026
External:        +0.000000
XC:              -8.346387
Entropy (-ST):   +0.000000
Local:           +0.119015
--------------------------
Free energy:    -14.399070
Extrapolated:   -14.399070

 Band  Eigenvalues  Occupancy
    0    -26.85925    2.00000
    1    -13.37575    2.00000
    2    -10.05643    2.00000
    3    -10.05643    2.00000
    4     -8.47992    2.00000
    5     -2.20285    0.00000

Fermi level: -5.94333

Gap: 6.277 eV
Transition (v -> c):
  (s=0, k=0, n=4, [0.00, 0.00, 0.00]) -> (s=0, k=0, n=5, [0.00, 0.00, 0.00])
