
  ___ ___ ___ _ _ _  
 |   |   |_  | | | | 
 | | | | | . | | | | 
 |__ |  _|___|_____|  22.8.0
 |___|_|             

User:   tha@20175329-p01
Date:   Fri Jan 27 15:07:18 2023
Arch:   x86_64
Pid:    270
CWD:    /mnt/d/work/w23_DFT/ASE_kitchin_book
Python: 3.10.8
gpaw:   /home/tha/app/miniconda3/envs/py310ase/lib/python3.10/site-packages/gpaw
_gpaw:  /home/tha/app/miniconda3/envs/py310ase/lib/python3.10/site-packages/
        _gpaw.cpython-310-x86_64-linux-gnu.so
ase:    /home/tha/app/miniconda3/envs/py310ase/lib/python3.10/site-packages/ase (version 3.22.1)
numpy:  /home/tha/app/miniconda3/envs/py310ase/lib/python3.10/site-packages/numpy (version 1.24.1)
scipy:  /home/tha/app/miniconda3/envs/py310ase/lib/python3.10/site-packages/scipy (version 1.10.0)
libxc:  5.2.3
units:  Angstrom and eV
cores: 1
OpenMP: True
OMP_NUM_THREADS: 1

Input parameters:
  mode: {ecut: 550.0,
         name: pw}
  nbands: 6
  occupations: {name: methfessel-paxton,
                order: 0,
                width: 0.01}
  xc: PBE

System changes: positions, numbers, cell, pbc, initial_charges, initial_magmoms 

Initialize ...

species:
  C:
    name: Carbon
    id: 4aa54d4b901d75f77cc0ea3eec22967b
    Z: 6.0
    valence: 4
    core: 2
    charge: 0.0
    file: /home/tha/PAWDATA/gpaw-setups-0.9.20000/C.PBE.gz
    compensation charges: {type: gauss,
                           rc: 0.20,
                           lmax: 2}
    cutoffs: {filter: 1.14,
              core: 1.14}
    valence states:
      #              energy  rcut
      - 2s(2.00)   -13.751   0.635
      - 2p(2.00)    -5.284   0.635
      -  s          13.461   0.635
      -  p          21.927   0.635
      -  d           0.000   0.635
  
    # Using partial waves for C as LCAO basis

  O:
    name: Oxygen
    id: 32ecd46bf208036f09c70b0ec9a88b78
    Z: 8.0
    valence: 6
    core: 2
    charge: 0.0
    file: /home/tha/PAWDATA/gpaw-setups-0.9.20000/O.PBE.gz
    compensation charges: {type: gauss,
                           rc: 0.21,
                           lmax: 2}
    cutoffs: {filter: 1.17,
              core: 0.83}
    valence states:
      #              energy  rcut
      - 2s(2.00)   -23.961   0.688
      - 2p(4.00)    -9.029   0.598
      -  s           3.251   0.688
      -  p          18.182   0.598
      -  d           0.000   0.619
  
    # Using partial waves for O as LCAO basis

Reference energy: -3068.480417  # eV

Spin-paired calculation

Convergence criteria:
 Maximum [total energy] change in last 3 cyles: 0.0005 eV / electron
 Maximum integral of absolute [dens]ity change: 0.0001 electrons / valence electron
 Maximum integral of absolute [eigenst]ate change: 4e-08 eV^2 / valence electron
 Maximum number of scf [iter]ations: 333
 (Square brackets indicate name in SCF output, whereas a 'c' in
 the SCF output indicates the quantity has converged.)

Symmetries present (total): 8

  ( 1  0  0)  ( 1  0  0)  ( 1  0  0)  ( 1  0  0)  ( 1  0  0)  ( 1  0  0)
  ( 0  1  0)  ( 0  1  0)  ( 0  0  1)  ( 0  0  1)  ( 0  0 -1)  ( 0  0 -1)
  ( 0  0  1)  ( 0  0 -1)  ( 0  1  0)  ( 0 -1  0)  ( 0  1  0)  ( 0 -1  0)

  ( 1  0  0)  ( 1  0  0)
  ( 0 -1  0)  ( 0 -1  0)
  ( 0  0  1)  ( 0  0 -1)

1 k-point (Gamma)
1 k-point in the irreducible part of the Brillouin zone
       k-points in crystal coordinates                weights
   0:     0.00000000    0.00000000    0.00000000          1/1

Wave functions: Plane wave expansion
  Cutoff energy: 550.000 eV
  Number of coefficients: 6355 (reduced to 3178)
  Pulay-stress correction: 0.000000 eV/Ang^3 (de/decut=0.000000)
  Using FFTW library
  ScaLapack parameters: grid=1x1, blocksize=None
  Wavefunction extrapolation:
    Improved wavefunction reuse through dual PAW basis 

Occupation numbers: Methfessel-Paxton:
  width: 0.0100  # eV
  order: 0
 

Eigensolver
   Davidson(niter=2) 

Densities:
  Coarse grid: 35*35*35 grid
  Fine grid: 70*70*70 grid
  Total Charge: 0.000000 

Density mixing:
  Method: separate
  Backend: pulay
  Linear mixing parameter: 0.05
  old densities: 5
  Damping of long wavelength oscillations: 50 

Hamiltonian:
  XC and Coulomb potentials evaluated on a 70*70*70 grid
  Using the PBE Exchange-Correlation functional
  External potential:
    NoExternalPotential
 

XC parameters: PBE with 2 nearest neighbor stencil

Memory estimate:
  Process memory now: 179.12 MiB
  Calculator: 28.12 MiB
    Density: 20.19 MiB
      Arrays: 8.50 MiB
      Localized functions: 8.41 MiB
      Mixer: 3.27 MiB
    Hamiltonian: 5.77 MiB
      Arrays: 5.56 MiB
      XC: 0.00 MiB
      Poisson: 0.00 MiB
      vbar: 0.20 MiB
    Wavefunctions: 2.17 MiB
      Arrays psit_nG: 0.29 MiB
      Eigensolver: 0.54 MiB
      Projections: 0.00 MiB
      Projectors: 0.46 MiB
      PW-descriptor: 0.88 MiB

Total number of cores used: 1

Number of atoms: 2
Number of atomic orbitals: 8
Number of bands in calculation: 6
Number of valence electrons: 10
Bands to converge: occupied

... initialized

Initializing position-dependent things.

Density initialized from atomic densities
Creating initial wave functions:
  6 bands from LCAO basis set

     .--------------.  
    /|              |  
   / |              |  
  /  |              |  
 *   |              |  
 |   |              |  
 |   |              |  
 |   .--------------.  
 |  /              /   
 | /              /    
 |/              /     
 C--O-----------*      

Positions:
   0 C      0.000000    0.000000    0.000000    ( 0.0000,  0.0000,  0.0000)
   1 O      1.200000    0.000000    0.000000    ( 0.0000,  0.0000,  0.0000)

Unit cell:
           periodic     x           y           z      points  spacing
  1. axis:    no     6.000000    0.000000    0.000000    35     0.1714
  2. axis:    no     0.000000    6.000000    0.000000    35     0.1714
  3. axis:    no     0.000000    0.000000    6.000000    35     0.1714

  Lengths:   6.000000   6.000000   6.000000
  Angles:   90.000000  90.000000  90.000000

Effective grid spacing dv^(1/3) = 0.1714

     iter     time        total  log10-change:
                         energy  eigst   dens
iter:   1 15:07:19   -15.283305
iter:   2 15:07:19   -15.198198  -1.02  -0.92
iter:   3 15:07:19   -14.880828  -0.74  -0.95
iter:   4 15:07:19   -14.849768  -1.49  -1.18
iter:   5 15:07:19   -14.806885  -1.12  -1.26
iter:   6 15:07:20   -14.813021  -2.05  -1.63
iter:   7 15:07:20   -14.879024  -1.73  -1.58
iter:   8 15:07:20   -14.826864  -2.67  -1.40
iter:   9 15:07:20   -14.822515  -3.08  -1.48
iter:  10 15:07:20   -14.837967  -3.25  -1.49
iter:  11 15:07:20   -14.997869  -1.61  -1.46
iter:  12 15:07:20   -14.759802  -0.91  -1.25
iter:  13 15:07:20   -14.761951  -2.41  -2.49
iter:  14 15:07:21   -14.761699c -3.59  -2.42
iter:  15 15:07:21   -14.762070c -4.31  -2.54
iter:  16 15:07:21   -14.761850c -3.85  -2.50
iter:  17 15:07:21   -14.762012c -4.58  -2.65
iter:  18 15:07:21   -14.762075c -4.45  -2.79
iter:  19 15:07:21   -14.762040c -4.69  -2.85
iter:  20 15:07:21   -14.762068c -4.66  -2.95
iter:  21 15:07:22   -14.762052c -4.82  -2.99
iter:  22 15:07:22   -14.762066c -4.82  -3.15
iter:  23 15:07:22   -14.762043c -5.14  -3.29
iter:  24 15:07:22   -14.762068c -4.69  -3.63
iter:  25 15:07:22   -14.762049c -4.45  -3.25
iter:  26 15:07:22   -14.762043c -6.24  -3.61
iter:  27 15:07:22   -14.762043c -6.49  -4.06c
iter:  28 15:07:22   -14.762043c -7.38  -4.52c
iter:  29 15:07:23   -14.762043c -8.50c -4.53c

Converged after 29 iterations.

Dipole moment: (-0.512083, -0.000000, 0.000000) |e|*Ang

Energy contributions relative to reference atoms: (reference = -3068.480417)

Kinetic:         +7.701173
Potential:      -13.103984
External:        +0.000000
XC:              -9.475270
Entropy (-ST):   +0.000000
Local:           +0.116038
--------------------------
Free energy:    -14.762043
Extrapolated:   -14.762043

 Band  Eigenvalues  Occupancy
    0    -27.52762    2.00000
    1    -13.34343    2.00000
    2    -10.43690    2.00000
    3    -10.43690    2.00000
    4     -8.39876    2.00000
    5     -1.78388    0.00000

Fermi level: -6.12707

Gap: 6.615 eV
Transition (v -> c):
  (s=0, k=0, n=4, [0.00, 0.00, 0.00]) -> (s=0, k=0, n=5, [0.00, 0.00, 0.00])
