
  ___ ___ ___ _ _ _  
 |   |   |_  | | | | 
 | | | | | . | | | | 
 |__ |  _|___|_____|  22.8.1b1
 |___|_|             

User:   tha@Tha-DELL
Date:   Fri Jan 27 01:16:02 2023
Arch:   x86_64
Pid:    7797
CWD:    /mnt/c/DATA/work/w23_DFT/ASE_kitchin_book
Python: 3.10.8
gpaw:   /home/tha/app/miniconda3/envs/py310ase/lib/python3.10/site-packages/gpaw
_gpaw:  /home/tha/app/miniconda3/envs/py310ase/lib/python3.10/site-packages/
        _gpaw.cpython-310-x86_64-linux-gnu.so
ase:    /home/tha/app/miniconda3/envs/py310ase/lib/python3.10/site-packages/ase (version 3.23.0b1)
numpy:  /home/tha/app/miniconda3/envs/py310ase/lib/python3.10/site-packages/numpy (version 1.24.1)
scipy:  /home/tha/app/miniconda3/envs/py310ase/lib/python3.10/site-packages/scipy (version 1.10.0)
libxc:  5.2.3
units:  Angstrom and eV
cores: 1
OpenMP: False
OMP_NUM_THREADS: 1

Input parameters:
  mode: {ecut: 550.0,
         name: pw}
  nbands: 6
  occupations: {name: methfessel-paxton,
                order: 0,
                width: 0.01}
  xc: PBE

System changes: positions, numbers, cell, pbc, initial_charges, initial_magmoms 

Initialize ...

species:
  C:
    name: Carbon
    id: 4aa54d4b901d75f77cc0ea3eec22967b
    Z: 6.0
    valence: 4
    core: 2
    charge: 0.0
    file: /home/tha/PAWDATA/gpaw-setups-0.9.20000/C.PBE.gz
    compensation charges: {type: gauss,
                           rc: 0.20,
                           lmax: 2}
    cutoffs: {filter: 1.14,
              core: 1.14}
    valence states:
      #              energy  rcut
      - 2s(2.00)   -13.751   0.635
      - 2p(2.00)    -5.284   0.635
      -  s          13.461   0.635
      -  p          21.927   0.635
      -  d           0.000   0.635
  
    # Using partial waves for C as LCAO basis

  O:
    name: Oxygen
    id: 32ecd46bf208036f09c70b0ec9a88b78
    Z: 8.0
    valence: 6
    core: 2
    charge: 0.0
    file: /home/tha/PAWDATA/gpaw-setups-0.9.20000/O.PBE.gz
    compensation charges: {type: gauss,
                           rc: 0.21,
                           lmax: 2}
    cutoffs: {filter: 1.17,
              core: 0.83}
    valence states:
      #              energy  rcut
      - 2s(2.00)   -23.961   0.688
      - 2p(4.00)    -9.029   0.598
      -  s           3.251   0.688
      -  p          18.182   0.598
      -  d           0.000   0.619
  
    # Using partial waves for O as LCAO basis

Reference energy: -3068.480417  # eV

Spin-paired calculation

Convergence criteria:
 Maximum [total energy] change in last 3 cyles: 0.0005 eV / valence electron
 Maximum integral of absolute [dens]ity change: 0.0001 electrons / valence electron
 Maximum integral of absolute [eigenst]ate change: 4e-08 eV^2 / valence electron
 Maximum number of scf [iter]ations: 333
 (Square brackets indicate name in SCF output, whereas a 'c' in
 the SCF output indicates the quantity has converged.)

Symmetries present (total): 8

  ( 1  0  0)  ( 1  0  0)  ( 1  0  0)  ( 1  0  0)  ( 1  0  0)  ( 1  0  0)
  ( 0  1  0)  ( 0  1  0)  ( 0  0  1)  ( 0  0  1)  ( 0  0 -1)  ( 0  0 -1)
  ( 0  0  1)  ( 0  0 -1)  ( 0  1  0)  ( 0 -1  0)  ( 0  1  0)  ( 0 -1  0)

  ( 1  0  0)  ( 1  0  0)
  ( 0 -1  0)  ( 0 -1  0)
  ( 0  0  1)  ( 0  0 -1)

1 k-point (Gamma)
1 k-point in the irreducible part of the Brillouin zone
       k-points in crystal coordinates                weights
   0:     0.00000000    0.00000000    0.00000000          1/1

Wave functions: Plane wave expansion
  Cutoff energy: 550.000 eV
  Number of coefficients: 6355 (reduced to 3178)
  Pulay-stress correction: 0.000000 eV/Ang^3 (de/decut=0.000000)
  Using Numpy's FFT
  ScaLapack parameters: grid=1x1, blocksize=None
  Wavefunction extrapolation:
    Improved wavefunction reuse through dual PAW basis 

Occupation numbers: Methfessel-Paxton:
  width: 0.0100  # eV
  order: 0
 

Eigensolver
   Davidson(niter=2) 

Densities:
  Coarse grid: 35*35*35 grid
  Fine grid: 70*70*70 grid
  Total Charge: 0.000000 

Density mixing:
  Method: separate
  Backend: pulay
  Linear mixing parameter: 0.05
  old densities: 5
  Damping of long wavelength oscillations: 50 

Hamiltonian:
  XC and Coulomb potentials evaluated on a 70*70*70 grid
  Using the PBE Exchange-Correlation functional
  External potential:
    NoExternalPotential
 

XC parameters: PBE with 2 nearest neighbor stencil

Memory estimate:
  Process memory now: 221.27 MiB
  Calculator: 28.12 MiB
    Density: 20.19 MiB
      Arrays: 8.50 MiB
      Localized functions: 8.41 MiB
      Mixer: 3.27 MiB
    Hamiltonian: 5.77 MiB
      Arrays: 5.56 MiB
      XC: 0.00 MiB
      Poisson: 0.00 MiB
      vbar: 0.20 MiB
    Wavefunctions: 2.17 MiB
      Arrays psit_nG: 0.29 MiB
      Eigensolver: 0.54 MiB
      Projections: 0.00 MiB
      Projectors: 0.46 MiB
      PW-descriptor: 0.88 MiB

Total number of cores used: 1

Number of atoms: 2
Number of atomic orbitals: 8
Number of bands in calculation: 6
Number of valence electrons: 10
Bands to converge: occupied

... initialized

Initializing position-dependent things.

Density initialized from atomic densities
Creating initial wave functions:
  6 bands from LCAO basis set

     .--------------.  
    /|              |  
   / |              |  
  /  |              |  
 *   |              |  
 |   |              |  
 |   |              |  
 |   .--------------.  
 |  /              /   
 | /              /    
 |/              /     
 C--O-----------*      

Positions:
   0 C      0.000000    0.000000    0.000000    ( 0.0000,  0.0000,  0.0000)
   1 O      1.200000    0.000000    0.000000    ( 0.0000,  0.0000,  0.0000)

Unit cell:
           periodic     x           y           z      points  spacing
  1. axis:    no     6.000000    0.000000    0.000000    35     0.1714
  2. axis:    no     0.000000    6.000000    0.000000    35     0.1714
  3. axis:    no     0.000000    0.000000    6.000000    35     0.1714

  Lengths:   6.000000   6.000000   6.000000
  Angles:   90.000000  90.000000  90.000000

Effective grid spacing dv^(1/3) = 0.1714

     iter     time        total  log10-change:
                         energy  eigst   dens
iter:   1 01:16:03   -15.283305
iter:   2 01:16:03   -15.198198  -1.02  -0.92
iter:   3 01:16:03   -14.880828  -0.74  -0.95
iter:   4 01:16:03   -14.849768  -1.49  -1.18
iter:   5 01:16:03   -14.806885  -1.12  -1.26
iter:   6 01:16:04   -14.813021  -2.05  -1.63
iter:   7 01:16:04   -14.879024  -1.73  -1.58
iter:   8 01:16:04   -14.826864  -2.67  -1.40
iter:   9 01:16:04   -14.822515  -3.08  -1.48
iter:  10 01:16:04   -14.837967  -3.25  -1.49
iter:  11 01:16:05   -14.997869  -1.61  -1.46
iter:  12 01:16:05   -14.759802  -0.91  -1.25
iter:  13 01:16:05   -14.761951  -2.41  -2.49
iter:  14 01:16:05   -14.761699c -3.59  -2.42
iter:  15 01:16:05   -14.762070c -4.31  -2.54
iter:  16 01:16:06   -14.761850c -3.85  -2.50
iter:  17 01:16:06   -14.762012c -4.58  -2.65
iter:  18 01:16:06   -14.762075c -4.45  -2.79
iter:  19 01:16:06   -14.762040c -4.69  -2.85
iter:  20 01:16:06   -14.762068c -4.66  -2.95
iter:  21 01:16:07   -14.762052c -4.82  -2.99
iter:  22 01:16:07   -14.762066c -4.82  -3.15
iter:  23 01:16:07   -14.762043c -5.14  -3.29
iter:  24 01:16:07   -14.762068c -4.69  -3.63
iter:  25 01:16:07   -14.762049c -4.45  -3.25
iter:  26 01:16:07   -14.762043c -6.24  -3.61
iter:  27 01:16:08   -14.762043c -6.49  -4.06c
iter:  28 01:16:08   -14.762043c -7.38  -4.52c
iter:  29 01:16:08   -14.762043c -8.50c -4.53c

Converged after 29 iterations.

Dipole moment: (-0.512083, 0.000000, 0.000000) |e|*Ang

Energy contributions relative to reference atoms: (reference = -3068.480417)

Kinetic:         +7.701173
Potential:      -13.103984
External:        +0.000000
XC:              -9.475270
Entropy (-ST):   +0.000000
Local:           +0.116038
--------------------------
Free energy:    -14.762043
Extrapolated:   -14.762043

 Band  Eigenvalues  Occupancy
    0    -27.52762    2.00000
    1    -13.34343    2.00000
    2    -10.43690    2.00000
    3    -10.43690    2.00000
    4     -8.39876    2.00000
    5     -1.78388    0.00000

Fermi level: -6.12707

Gap: 6.615 eV
Transition (v -> c):
  (s=0, k=0, n=4, [0.00, 0.00, 0.00]) -> (s=0, k=0, n=5, [0.00, 0.00, 0.00])
                                                                                                                                                                                                                                                                                                                                                                                                                                   
Forces in eV/Ang:
  0 C     5.63876    0.00000    0.00000
  1 O    -5.64304    0.00000    0.00000

Writing to molecules/simple_co.gpw (mode='')

Timing:                              incl.     excl.
-----------------------------------------------------------
Forces:                              0.029     0.029   0.2% |
Hamiltonian:                         0.102     0.001   0.0% |
 Atomic:                             0.038     0.000   0.0% |
  XC Correction:                     0.037     0.037   0.2% |
 Calculate atomic Hamiltonians:      0.003     0.003   0.0% |
 Communicate:                        0.000     0.000   0.0% |
 Initialize Hamiltonian:             0.000     0.000   0.0% |
 Poisson:                            0.001     0.001   0.0% |
 XC 3D grid:                         0.059     0.059   0.3% |
LCAO initialization:                 0.044     0.026   0.1% |
 LCAO eigensolver:                   0.007     0.000   0.0% |
  Calculate projections:             0.000     0.000   0.0% |
  DenseAtomicCorrection:             0.000     0.000   0.0% |
  Distribute overlap matrix:         0.000     0.000   0.0% |
  Orbital Layouts:                   0.000     0.000   0.0% |
  Potential matrix:                  0.006     0.006   0.0% |
 LCAO to grid:                       0.006     0.006   0.0% |
 Set positions (LCAO WFS):           0.006     0.000   0.0% |
  Basic WFS set positions:           0.000     0.000   0.0% |
  Basis functions set positions:     0.000     0.000   0.0% |
  P tci:                             0.001     0.001   0.0% |
  ST tci:                            0.001     0.001   0.0% |
  mktci:                             0.003     0.003   0.0% |
PWDescriptor:                        0.001     0.001   0.0% |
SCF-cycle:                           5.747     0.038   0.2% |
 Davidson:                           0.883     0.107   0.6% |
  Apply H:                           0.163     0.160   0.8% |
   HMM T:                            0.003     0.003   0.0% |
  Subspace diag:                     0.197     0.003   0.0% |
   calc_h_matrix:                    0.184     0.016   0.1% |
    Apply H:                         0.168     0.165   0.9% |
     HMM T:                          0.003     0.003   0.0% |
   diagonalize:                      0.006     0.006   0.0% |
   rotate_psi:                       0.004     0.004   0.0% |
  calc. matrices:                    0.402     0.061   0.3% |
   Apply H:                          0.341     0.334   1.8% ||
    HMM T:                           0.007     0.007   0.0% |
  diagonalize:                       0.009     0.009   0.0% |
  rotate_psi:                        0.005     0.005   0.0% |
 Density:                            0.807     0.001   0.0% |
  Atomic density matrices:           0.016     0.016   0.1% |
  Mix:                               0.461     0.461   2.4% ||
  Multipole moments:                 0.003     0.003   0.0% |
  Pseudo density:                    0.327     0.114   0.6% |
   Symmetrize density:               0.212     0.212   1.1% |
 Hamiltonian:                        4.018     0.034   0.2% |
  Atomic:                            1.381     0.015   0.1% |
   XC Correction:                    1.366     1.366   7.2% |--|
  Calculate atomic Hamiltonians:     0.135     0.135   0.7% |
  Communicate:                       0.000     0.000   0.0% |
  Poisson:                           0.025     0.025   0.1% |
  XC 3D grid:                        2.444     2.444  12.9% |----|
 Orthonormalize:                     0.001     0.000   0.0% |
  calc_s_matrix:                     0.000     0.000   0.0% |
  inverse-cholesky:                  0.000     0.000   0.0% |
  projections:                       0.000     0.000   0.0% |
  rotate_psi_s:                      0.000     0.000   0.0% |
Set symmetry:                        0.002     0.002   0.0% |
Other:                              13.081    13.081  68.8% |---------------------------|
-----------------------------------------------------------
Total:                                        19.006 100.0%

Memory usage: 221.27 MiB
Date: Fri Jan 27 01:16:02 2023
