#     Step Nr.          Time[fs]        Kin.[a.u.]          Temp[K]            Pot.[a.u.]        Cons Qty[a.u.]        UsedTime[s]
         0            0.000000         0.043203278        85.000000000        -0.206517822        -0.163314543         0.000000000
         1            5.000000         0.043609157        85.798543299        -0.206924302        -0.163315145         0.047472680
         2           10.000000         0.044013432        86.593930550        -0.207329070        -0.163315638         0.026144656
         3           15.000000         0.044408084        87.370387394        -0.207724270        -0.163316186         0.024358536
         4           20.000000         0.044785303        88.112543738        -0.208102089        -0.163316786         0.025670037
         5           25.000000         0.045137349        88.805175033        -0.208454655        -0.163317306         0.024824285
         6           30.000000         0.045457434        89.434923018        -0.208775243        -0.163317809         0.025018660
         7           35.000000         0.045739636        89.990140479        -0.209057769        -0.163318132         0.024348738
         8           40.000000         0.045978940        90.460957846        -0.209297326        -0.163318386         0.025555024
         9           45.000000         0.046171847        90.840490818        -0.209490355        -0.163318508         0.024523725
        10           50.000000         0.046316409        91.124908971        -0.209634929        -0.163318520         0.025450904
        11           55.000000         0.046412315        91.313597990        -0.209730886        -0.163318571         0.027274179
        12           60.000000         0.046460649        91.408691977        -0.209779193        -0.163318544         0.025100654
        13           65.000000         0.046463453        91.414209496        -0.209781873        -0.163318420         0.024572610
        14           70.000000         0.046423480        91.335563435        -0.209741702        -0.163318223         0.024701393
        15           75.000000         0.046344019        91.179229413        -0.209662000        -0.163317981         0.026266482
        16           80.000000         0.046228958        90.952852481        -0.209546788        -0.163317831         0.025178302
        17           85.000000         0.046082713        90.665124884        -0.209400379        -0.163317665         0.024769640
        18           90.000000         0.045909651        90.324634181        -0.209227037        -0.163317386         0.024481193
        19           95.000000         0.045714272        89.940237163        -0.209031393        -0.163317121         0.025440780
        20          100.000000         0.045501269        89.521165618        -0.208818059        -0.163316791         0.025043483
        21          105.000000         0.045275622        89.077219422        -0.208592070        -0.163316447         0.035659311
        22          110.000000         0.045042625        88.618810003        -0.208358830        -0.163316205         0.025918776
        23          115.000000         0.044807507        88.156228389        -0.208123390        -0.163315883         0.025322495
        24          120.000000         0.044575600        87.699964586        -0.207891179        -0.163315579         0.025059369
        25          125.000000         0.044352184        87.260405832        -0.207667510        -0.163315326         0.025929487
        26          130.000000         0.044142346        86.847562049        -0.207457360        -0.163315014         0.025805477
        27          135.000000         0.043950692        86.470494908        -0.207265483        -0.163314791         0.025568550
        28          140.000000         0.043781204        86.137035071        -0.207095879        -0.163314675         0.024334461
        29          145.000000         0.043637069        85.853457826        -0.206951659        -0.163314590         0.025901382
        30          150.000000         0.043520539        85.624191596        -0.206835013        -0.163314474         0.024455063
        31          155.000000         0.043432910        85.451787639        -0.206747349        -0.163314439         0.025477675
        32          160.000000         0.043374563        85.336991930        -0.206689080        -0.163314518         0.024710626
        33          165.000000         0.043345160        85.279145081        -0.206659904        -0.163314743         0.025789246
        34          170.000000         0.043343369        85.275620834        -0.206658303        -0.163314933         0.024304342
        35          175.000000         0.043366961        85.322036028        -0.206682120        -0.163315159         0.026190019
        36          180.000000         0.043412804        85.412229052        -0.206728179        -0.163315375         0.026203345
        37          185.000000         0.043477047        85.538625329        -0.206792744        -0.163315697         0.024461566
        38          190.000000         0.043555732        85.693433291        -0.206871762        -0.163316030         0.024042282
        39          195.000000         0.043644726        85.868524058        -0.206961046        -0.163316320         0.024804647
        40          200.000000         0.043739907        86.055786203        -0.207056466        -0.163316559         0.024606991
        41          205.000000         0.043837347        86.247493496        -0.207154173        -0.163316826         0.033215568
        42          210.000000         0.043933337        86.436349028        -0.207250361        -0.163317024         0.025441936
        43          215.000000         0.044024914        86.616521632        -0.207342048        -0.163317134         0.025301376
        44          220.000000         0.044109634        86.783202487        -0.207426922        -0.163317289         0.026502642
        45          225.000000         0.044185511        86.932486394        -0.207503038        -0.163317527         0.027197629
        46          230.000000         0.044250800        87.060939093        -0.207568433        -0.163317633         0.026488628
        47          235.000000         0.044304154        87.165910694        -0.207621813        -0.163317659         0.025835701
        48          240.000000         0.044345137        87.246542380        -0.207662812        -0.163317675         0.025864315
        49          245.000000         0.044373615        87.302571873        -0.207691322        -0.163317706         0.026329258
        50          250.000000         0.044389972        87.334751645        -0.207707632        -0.163317661         0.024992364
        51          255.000000         0.044395617        87.345859372        -0.207713096        -0.163317478         0.025968822
        52          260.000000         0.044393315        87.341330611        -0.207710650        -0.163317334         0.025273226
        53          265.000000         0.044386922        87.328752772        -0.207703910        -0.163316987         0.025853676
        54          270.000000         0.044381314        87.317717869        -0.207697965        -0.163316652         0.025998083
        55          275.000000         0.044382391        87.319837704        -0.207698526        -0.163316135         0.025096040
        56          280.000000         0.044396469        87.347535875        -0.207712260        -0.163315791         0.025059499
        57          285.000000         0.044429804        87.413119492        -0.207745317        -0.163315513         0.025841697
        58          290.000000         0.044488181        87.527974044        -0.207803420        -0.163315238         0.025795107
        59          295.000000         0.044576218        87.701180633        -0.207891297        -0.163315079         0.025052776
        60          300.000000         0.044696912        87.938639309        -0.208011943        -0.163315031         0.024986444
        61          305.000000         0.044851169        88.242130573        -0.208166218        -0.163315049         0.033262962
        62          310.000000         0.045038083        88.609875029        -0.208353344        -0.163315261         0.025327726
        63          315.000000         0.045255296        89.037227912        -0.208570594        -0.163315298         0.024941667
        64          320.000000         0.045498599        89.515912389        -0.208814080        -0.163315481         0.026738121
        65          325.000000         0.045762507        90.035136307        -0.209078402        -0.163315895         0.024883809
        66          330.000000         0.046040978        90.583012330        -0.209357205        -0.163316227         0.025554373
        67          335.000000         0.046327486        91.146701823        -0.209644134        -0.163316648         0.024900688
        68          340.000000         0.046615299        91.712956832        -0.209932384        -0.163317086         0.025077623
        69          345.000000         0.046897694        92.268552472        -0.210215136        -0.163317442         0.025213626
        70          350.000000         0.047168074        92.800509692        -0.210485852        -0.163317778         0.025159797
        71          355.000000         0.047420184        93.296521889        -0.210738354        -0.163318170         0.025484333
        72          360.000000         0.047647934        93.744607658        -0.210966430        -0.163318496         0.026304905
        73          365.000000         0.047845914        94.134123115        -0.211164642        -0.163318728         0.024988542
        74          370.000000         0.048009659        94.456281830        -0.211328603        -0.163318944         0.025481112
        75          375.000000         0.048135736        94.704330713        -0.211454870        -0.163319134         0.024804206
        76          380.000000         0.048222073        94.874194882        -0.211541244        -0.163319170         0.024663180
        77          385.000000         0.048268124        94.964796375        -0.211587192        -0.163319069         0.024692886
        78          390.000000         0.048275296        94.978907852        -0.211594134        -0.163318838         0.024756896
        79          395.000000         0.048246884        94.923008133        -0.211565464        -0.163318580         0.024467807
        80          400.000000         0.048187693        94.806552795        -0.211505880        -0.163318187         0.024808209
        81          405.000000         0.048103845        94.641587471        -0.211421550        -0.163317705         0.033523914
        82          410.000000         0.048002293        94.441789221        -0.211319486        -0.163317193         0.025166319
        83          415.000000         0.047890041        94.220939486        -0.211206801        -0.163316760         0.024471140
        84          420.000000         0.047773833        93.992308005        -0.211090201        -0.163316368         0.024647583
        85          425.000000         0.047659880        93.768110718        -0.210975946        -0.163316066         0.025021170
        86          430.000000         0.047553767        93.559339143        -0.210869462        -0.163315695         0.024482022
        87          435.000000         0.047460401        93.375647806        -0.210775838        -0.163315437         0.025321778
        88          440.000000         0.047383833        93.225004043        -0.210699028        -0.163315196         0.025151125
        89          445.000000         0.047327196        93.113574382        -0.210642261        -0.163315065         0.024914850
        90          450.000000         0.047292642        93.045591076        -0.210607614        -0.163314972         0.023791874
        91          455.000000         0.047281266        93.023209586        -0.210596194        -0.163314928         0.025037241
        92          460.000000         0.047293201        93.046690816        -0.210608103        -0.163314902         0.025354983
        93          465.000000         0.047327481        93.114135864        -0.210642481        -0.163314999         0.025195411
        94          470.000000         0.047382189        93.221769993        -0.210697416        -0.163315227         0.024351213
        95          475.000000         0.047454107        93.363265161        -0.210769616        -0.163315508         0.025643064
        96          480.000000         0.047539177        93.530634073        -0.210854954        -0.163315778         0.024547788
        97          485.000000         0.047632876        93.714982030        -0.210949000        -0.163316124         0.024894826
        98          490.000000         0.047729879        93.905830934        -0.211046289        -0.163316409         0.024989769
        99          495.000000         0.047824827        94.092634824        -0.211141557        -0.163316730         0.025111123
       100          500.000000         0.047912926        94.265963853        -0.211229964        -0.163317038         0.025240438
