     108
 i =        0, time =        0.000, E =        -0.2065178218
 Ar        -8.5386901295      -15.5816257771        2.8566367230
 Ar         1.5300730483        9.2852817904       11.1777824543
 Ar        11.9910225120       -7.4882532957       -9.9654530635
 Ar       -12.6782400030       -3.3410587201        4.0747109782
 Ar        -1.7704625428       -0.2324594643       13.2012946017
 Ar         8.0176137119       -2.5724958773       -4.1272055475
 Ar         8.5784951723        4.0139666462        5.5736882198
 Ar        -3.8920067928      -10.2930917801       -6.9864023229
 Ar        -3.3545716056      -16.1119619277       16.1358515626
 Ar         9.7895715510      -16.2628264195       -5.6979085707
 Ar         0.5051434954       -4.2297841576       12.4854171634
 Ar        15.5632243940       -7.9804890509        2.2099470855
 Ar        -5.4074164400       -2.6476445711       -0.6814852126
 Ar        -0.0983719068       -1.7367400486       -7.1191554512
 Ar         7.5265578133       -5.5296996967      -12.8886150439
 Ar        -5.4565541100        0.5644457544        2.0390251010
 Ar       -11.8590998267        3.4040744639        3.7268793393
 Ar        16.7175362589       -7.4713237735       -1.0227447667
 Ar       -20.4572129717       -5.7370080772        4.8184508638
 Ar        14.8485522289       -1.4160863305      -16.0839111491
 Ar         8.0437947051       -8.1403381484       -4.7554312381
 Ar        12.2738439612       -1.7058983467       12.9622486200
 Ar        -0.4218518064      -11.1177490353       20.4545363333
 Ar         2.2819434170        5.9208391754      -11.1732449878
 Ar       -13.9648466918        8.7792388576        8.0737337048
 Ar       -10.3147439499        6.3852956124      -15.3411964215
 Ar        -2.7189996465      -21.4890074469       10.8678096819
 Ar       -17.7923879123      -10.7840901151       -4.8395499652
 Ar         5.2349413851       -6.7922290679       -6.0718769081
 Ar         3.5244875064      -10.1225951872        2.9682904866
 Ar       -16.1586602902       -5.1827431639        8.5707269408
 Ar        -5.8098282442        4.3264019350        2.5559910187
 Ar         6.2916010908       27.5741337288       15.0246410590
 Ar        -3.1874171171       23.2996469100      -16.8034854143
 Ar        -4.2022575504        9.3603772594       16.5891306155
 Ar        -7.6439290875       -9.5243238441      -29.8228731471
 Ar         0.5453525258       13.9240554617       -0.3837867803
 Ar        -5.2743288681       -5.5381378179      -20.3014703747
 Ar        22.9921850153        6.7861937167       -1.9828990529
 Ar        19.7720034229      -10.2373337687       -3.3308181857
 Ar         0.1567769029        6.5963011811        8.9074906251
 Ar         5.5793738186        0.2331062231        1.0275228782
 Ar        -3.6434356180        3.9644888101       25.8752124557
 Ar        -0.2484916981       20.4489725648       -2.5122044535
 Ar         2.9362670860        0.8598122134        9.9674330724
 Ar         3.3038431569       -2.9242126659       -6.3492704237
 Ar        -6.1549023524       -6.8496148008       -6.4620414461
 Ar       -23.2388291762      -28.1213094673        7.1372104719
 Ar         4.1152629133        2.7156414337       -0.8520300437
 Ar        14.6194148692        2.8081518226        1.9360197598
 Ar        18.9667954753       16.5700888519       13.3423444868
 Ar       -28.6124161417        2.8435363708       -9.2360197333
 Ar        -5.9700459456      -16.2230172568       -9.2292806184
 Ar        10.0481077883       16.3854819570        5.1257871135
 Ar        -7.2250850783        6.3461542223       -0.6807574637
 Ar       -12.0138912984      -10.4653110277       -6.4343478758
 Ar        -8.5316992690       12.8976589213       -0.8903612524
 Ar       -25.3700692951        3.3311990643       -7.9391768568
 Ar         2.9016348064      -12.9668181360       -7.9490775926
 Ar       -13.5963940986       11.9896580952       -3.5506875487
 Ar        13.1416029517        4.9714378345       -3.5084125273
 Ar       -13.3295460956       16.0410015778        7.0528279758
 Ar        -4.1506833549      -19.5111913798       21.0255971828
 Ar        -8.4294427082       16.3065160594      -18.2887817285
 Ar         0.7886363339        9.5901683682       22.1772606194
 Ar        -2.9260677863       -7.9740805489      -21.3519900334
 Ar        -6.3995986598       -4.5628046180        2.7553357109
 Ar        -4.0442387809      -14.9275965394       -5.5856147374
 Ar       -27.8524912514        0.8020521807       -3.0266378971
 Ar        -2.8396652965        7.1162712125        6.1854733276
 Ar        -8.6832788761       -6.6708830049       -9.1581545022
 Ar       -11.9620847111       -2.2095624961       -1.8397997537
 Ar        22.6848553724       12.2047209420        1.0123879784
 Ar         6.2950101204       -0.7697124713       -6.9145433225
 Ar         3.4999554679       -8.0070492014       -0.4265266319
 Ar         0.3851548123       17.8769740351      -17.4065226240
 Ar        21.2288869131       10.2327102036      -13.0872200859
 Ar         1.2208258700        5.8359743507       16.8450099267
 Ar        -7.0875403622        6.0341297186      -22.3251445580
 Ar        -0.0244265849       17.4693605251        7.3711673097
 Ar        15.0981822679        9.8894051625       -8.4938274014
 Ar        -6.5787768834      -15.0484532075       14.7230359830
 Ar        -2.2266666663       -4.1842190033       -2.4700788711
 Ar         5.2062106985      -22.6565181989        7.3947567481
 Ar        -8.8582880041       -2.4751066199        2.3544139853
 Ar         6.7520235454        0.4303913836        5.4349249526
 Ar        11.9263127546        8.1326725415        2.4008113296
 Ar       -14.5507562394       -0.4715406772      -13.7058431105
 Ar        14.1157692422       -2.9896859318       24.6842798176
 Ar        -3.3510733620       -0.6813625467       -7.3703991683
 Ar         7.7926987644        3.3068761509       -0.0732378021
 Ar        -1.1328905910      -17.1672835836      -12.9126466372
 Ar        -9.2105434952      -10.4846510043       -8.3848579779
 Ar        -6.4784877796       -3.9073665308      -10.6499668410
 Ar         0.9878749792       13.7363585341        5.0720965980
 Ar         8.8609781479        9.9610388779        1.0937379580
 Ar        -6.5806876684      -20.4019345282       -7.2893560818
 Ar        -0.4489770627       19.5862520160       11.0351198969
 Ar         7.3605693747       -2.6959428168        7.2608187460
 Ar        13.8791344547       12.1903465249        1.2488988544
 Ar        -3.6578275372       19.7829061762      -11.8161510230
 Ar         1.4972945094       -5.3928997725        1.9244584967
 Ar        18.5861605634        3.0086836640        2.0644013101
 Ar         6.2073076798       -9.4741839882        5.5493050775
 Ar         3.6505483789        3.4318105413       -4.3116081362
 Ar         2.6786261646        2.2930060515        5.9850296215
 Ar        24.5113122275        4.0073317098       13.1412501215
 Ar        -0.6002332620        3.6282563137        6.3841128472
     108
 i =        1, time =        5.000, E =        -0.2069243019
 Ar        -8.5280723139      -15.5879540965        2.8546334112
 Ar         1.5339428682        9.2825789691       11.1745532582
 Ar        11.9882158806       -7.4927817275       -9.9722664407
 Ar       -12.6642311488       -3.3509985930        4.0796802354
 Ar        -1.7573951248       -0.2375380612       13.2031970827
 Ar         8.0221489342       -2.5773408458       -4.1179464504
 Ar         8.5786869564        4.0092904942        5.5795582205
 Ar        -3.9021860800      -10.3005451592       -6.9914108611
 Ar        -3.3623834197      -16.1052181006       16.1292594705
 Ar         9.7882869733      -16.2491158569       -5.7022961341
 Ar         0.5022325227       -4.2184379216       12.4807948439
 Ar        15.5683681417       -7.9826708551        2.2186183167
 Ar        -5.4070190853       -2.6450024674       -0.6896501178
 Ar        -0.1029435809       -1.7384081739       -7.1127416717
 Ar         7.5258224197       -5.5173858882      -12.8882516581
 Ar        -5.4427594983        0.5685119899        2.0409761370
 Ar       -11.8595331761        3.3941358219        3.7344864710
 Ar        16.7155174595       -7.4683918765       -1.0203194707
 Ar       -20.4530285684       -5.7368121840        4.8169984692
 Ar        14.8442452457       -1.4099708972      -16.0805662328
 Ar         8.0482036161       -8.1412624076       -4.7412246906
 Ar        12.2660325414       -1.7057795295       12.9593014816
 Ar        -0.4115945895      -11.1176045447       20.4506456019
 Ar         2.2629517300        5.9191157855      -11.1721300370
 Ar       -13.9719980445        8.7847526532        8.0692821032
 Ar       -10.3043258719        6.3922616182      -15.3322696706
 Ar        -2.7153545880      -21.4994499381       10.8711460359
 Ar       -17.7899289061      -10.7837034750       -4.8393117273
 Ar         5.2234455157       -6.7937052227       -6.0679843743
 Ar         3.5157446179      -10.1224129217        2.9653725514
 Ar       -16.1591410662       -5.1738796615        8.5770269528
 Ar        -5.8144953362        4.3305760215        2.5629126161
 Ar         6.3059334152       27.5819820386       15.0329531371
 Ar        -3.1848105473       23.2930444434      -16.8086332565
 Ar        -4.1891524713        9.3653516537       16.5841675314
 Ar        -7.6527463946       -9.5317956402      -29.8217100652
 Ar         0.5335923278       13.9300175866       -0.3872984508
 Ar        -5.2777404512       -5.5257928318      -20.2979574565
 Ar        22.9926087061        6.7840446561       -1.9832589882
 Ar        19.7618791662      -10.2376565305       -3.3301164314
 Ar         0.1580745604        6.5972148581        8.8962655781
 Ar         5.5760469624        0.2256009175        1.0237005484
 Ar        -3.6470264977        3.9609513969       25.8719272019
 Ar        -0.2465859357       20.4446925778       -2.5130607196
 Ar         2.9249482444        0.8482504159        9.9668432330
 Ar         3.3022235611       -2.9277563325       -6.3562659634
 Ar        -6.1505220663       -6.8479105154       -6.4762819548
 Ar       -23.2354029309      -28.1114183543        7.1372088393
 Ar         4.1046586668        2.7139993298       -0.8547752935
 Ar        14.6240880713        2.8047375573        1.9381113307
 Ar        18.9709016144       16.5696753460       13.3418903263
 Ar       -28.6043353925        2.8364135311       -9.2283534486
 Ar        -5.9662159510      -16.2086003341       -9.2224540584
 Ar        10.0486896115       16.3862143008        5.1271026322
 Ar        -7.2356595907        6.3441740044       -0.6926195256
 Ar       -12.0196749092      -10.4718765435       -6.4357984684
 Ar        -8.5231126016       12.8960178101       -0.8942935892
 Ar       -25.3575679339        3.3280805660       -7.9301176215
 Ar         2.9030060917      -12.9674581823       -7.9396342205
 Ar       -13.5941436202       11.9864970693       -3.5532048907
 Ar        13.1383520126        4.9762843147       -3.5009799959
 Ar       -13.3261223219       16.0333731860        7.0535882004
 Ar        -4.1516979129      -19.5098568433       21.0230206566
 Ar        -8.4223109019       16.3010881446      -18.2832835799
 Ar         0.7821285371        9.5964052082       22.1677402538
 Ar        -2.9251397050       -7.9799448345      -21.3430762441
 Ar        -6.4045193748       -4.5581129690        2.7637807592
 Ar        -4.0357317306      -14.9228573926       -5.5745388188
 Ar       -27.8490066778        0.8037210278       -3.0257568344
 Ar        -2.8325379397        7.1182058857        6.1691312977
 Ar        -8.6781614793       -6.6645001787       -9.1429612537
 Ar       -11.9626832317       -2.2161733368       -1.8434913859
 Ar        22.6891377709       12.1924900243        1.0167085874
 Ar         6.2906065831       -0.7599710909       -6.9202700572
 Ar         3.4939886367       -8.0113102940       -0.4298463997
 Ar         0.3797720898       17.8640071136      -17.4093619724
 Ar        21.2223686104       10.2226004989      -13.0747735636
 Ar         1.2166943999        5.8364898912       16.8348861344
 Ar        -7.0848710921        6.0319090432      -22.3335305601
 Ar        -0.0230339682       17.4833870598        7.3673251830
 Ar        15.0948705700        9.8952027212       -8.4806537253
 Ar        -6.5920815166      -15.0456720221       14.7160022177
 Ar        -2.2276307129       -4.1962704655       -2.4704909718
 Ar         5.2018507174      -22.6485374670        7.4003580941
 Ar        -8.8657174440       -2.4775903162        2.3504696970
 Ar         6.7491252794        0.4335786759        5.4414669198
 Ar        11.9257643624        8.1435112200        2.3994583003
 Ar       -14.5450207655       -0.4769375167      -13.7019799341
 Ar        14.1274703795       -2.9824355086       24.6764197899
 Ar        -3.3530211015       -0.6771590230       -7.3721749401
 Ar         7.7881081464        3.3066070106       -0.0808768887
 Ar        -1.1296681179      -17.1662828810      -12.9126723244
 Ar        -9.2129642590      -10.4844245362       -8.3986866915
 Ar        -6.4807328924       -3.9031248293      -10.6569013614
 Ar         0.9806246866       13.7377373347        5.0810492588
 Ar         8.8635020695        9.9624339527        1.0920071330
 Ar        -6.5752592746      -20.3986045941       -7.2995493784
 Ar        -0.4461609679       19.5910682592       11.0287372435
 Ar         7.3601439050       -2.6918389457        7.2605348591
 Ar        13.8792483520       12.1839044350        1.2498982258
 Ar        -3.6656520220       19.7768693081      -11.8194311754
 Ar         1.5048905600       -5.3987031798        1.9218279615
 Ar        18.5880410530        3.0011282536        2.0617760172
 Ar         6.2099649770       -9.4768207441        5.5484861075
 Ar         3.6694973727        3.4382259517       -4.3116725927
 Ar         2.6670400439        2.2963969153        5.9948171961
 Ar        24.5181405712        3.9931848721       13.1504973074
 Ar        -0.6110738626        3.6353196836        6.3827989976
     108
 i =        2, time =       10.000, E =        -0.2073290701
 Ar        -8.5177664013      -15.5940223838        2.8524201357
 Ar         1.5377150945        9.2799926178       11.1714909347
 Ar        11.9849692683       -7.4972572368       -9.9790931261
 Ar       -12.6499811569       -3.3609557071        4.0847686975
 Ar        -1.7440885170       -0.2426559690       13.2051103648
 Ar         8.0267857290       -2.5822911974       -4.1089945288
 Ar         8.5788390680        4.0046435220        5.5854153240
 Ar        -3.9123916383      -10.3070950102       -6.9960260940
 Ar        -3.3703841010      -16.0982186486       16.1222907731
 Ar         9.7868935290      -16.2359084963       -5.7064787090
 Ar         0.4990411567       -4.2072049165       12.4762012445
 Ar        15.5734122791       -7.9848277113        2.2275003591
 Ar        -5.4062926346       -2.6422952445       -0.6976614921
 Ar        -0.1072330177       -1.7402752992       -7.1060695832
 Ar         7.5251225490       -5.5051848167      -12.8877310227
 Ar        -5.4285233657        0.5723573943        2.0427254099
 Ar       -11.8599705049        3.3842763435        3.7419704476
 Ar        16.7136370298       -7.4653927175       -1.0181926192
 Ar       -20.4486640331       -5.7366538393        4.8155176564
 Ar        14.8401411393       -1.4040602764      -16.0772249040
 Ar         8.0530239692       -8.1425020628       -4.7270797378
 Ar        12.2579097821       -1.7057724504       12.9563601802
 Ar        -0.4012980744      -11.1176450068       20.4468155138
 Ar         2.2439575386        5.9173791093      -11.1709093852
 Ar       -13.9790892438        8.7901780500        8.0647013495
 Ar       -10.2937356523        6.3992647346      -15.3233566753
 Ar        -2.7119132056      -21.5099331757       10.8745900027
 Ar       -17.7876073803      -10.7834667262       -4.8389197654
 Ar         5.2117608738       -6.7951111044       -6.0645854005
 Ar         3.5068300661      -10.1225009464        2.9620317686
 Ar       -16.1595717717       -5.1649508431        8.5833107251
 Ar        -5.8193056777        4.3348295056        2.5698666925
 Ar         6.3204720513       27.5898962507       15.0414513751
 Ar        -3.1819699979       23.2861123017      -16.8138920970
 Ar        -4.1760744022        9.3704352434       16.5786437472
 Ar        -7.6622560751       -9.5391924045      -29.8203457418
 Ar         0.5217869935       13.9364447821       -0.3913150815
 Ar        -5.2817540770       -5.5133516007      -20.2945474799
 Ar        22.9933308493        6.7817251608       -1.9835467896
 Ar        19.7517597192      -10.2378845063       -3.3297071599
 Ar         0.1592087709        6.5981791822        8.8848416112
 Ar         5.5729042414        0.2178450061        1.0201114478
 Ar        -3.6504004454        3.9567832978       25.8679070786
 Ar        -0.2447724851       20.4405388419       -2.5141039904
 Ar         2.9135445946        0.8363886972        9.9663758743
 Ar         3.3008621806       -2.9312219851       -6.3635301819
 Ar        -6.1459639209       -6.8462824793       -6.4905040536
 Ar       -23.2318940642      -28.1019124640        7.1375605777
 Ar         4.0938306101        2.7126382875       -0.8575055839
 Ar        14.6290795830        2.8013849910        1.9402231410
 Ar        18.9751396754       16.5692885743       13.3415012215
 Ar       -28.5959838267        2.8291394175       -9.2208287052
 Ar        -5.9622414347      -16.1941675831       -9.2155795821
 Ar        10.0493012765       16.3869461804        5.1282991226
 Ar        -7.2461822604        6.3422365857       -0.7044824958
 Ar       -12.0257466176      -10.4784722269       -6.4369284781
 Ar        -8.5145919032       12.8940511779       -0.8982755150
 Ar       -25.3450338309        3.3253177807       -7.9210939042
 Ar         2.9038965845      -12.9675971695       -7.9300482933
 Ar       -13.5919543140       11.9834052979       -3.5552705545
 Ar        13.1352138725        4.9813987703       -3.4932468853
 Ar       -13.3227661104       16.0256220181        7.0543811902
 Ar        -4.1523487076      -19.5081788081       21.0208437824
 Ar        -8.4149848716       16.2960905092      -18.2773243117
 Ar         0.7753483138        9.6025505219       22.1584256976
 Ar        -2.9241040246       -7.9858112784      -21.3342238042
 Ar        -6.4092179808       -4.5543619947        2.7722162368
 Ar        -4.0273786540      -14.9183948893       -5.5630699066
 Ar       -27.8457702955        0.8055566167       -3.0251819471
 Ar        -2.8250592449        7.1200700578        6.1526628781
 Ar        -8.6729983623       -6.6581864391       -9.1277916643
 Ar       -11.9634634636       -2.2230553634       -1.8470250620
 Ar        22.6933828978       12.1802292231        1.0210066151
 Ar         6.2862633876       -0.7501085537       -6.9259876656
 Ar         3.4877662316       -8.0155576468       -0.4329501941
 Ar         0.3743902707       17.8506050936      -17.4123191973
 Ar        21.2161330938       10.2128114948      -13.0622935447
 Ar         1.2124796215        5.8370531956       16.8250505926
 Ar        -7.0821328802        6.0296736478      -22.3420324785
 Ar        -0.0214627197       17.4974500110        7.3638700520
 Ar        15.0918448936        9.9009621123       -8.4673427603
 Ar        -6.6053904172      -15.0427642378       14.7090557117
 Ar        -2.2285105318       -4.2081570510       -2.4707090457
 Ar         5.1972094465      -22.6404920997        7.4059059357
 Ar        -8.8739418163       -2.4793144961        2.3463784938
 Ar         6.7458303369        0.4366428986        5.4482224161
 Ar        11.9257200217        8.1544928746        2.3980610914
 Ar       -14.5394083795       -0.4820546903      -13.6982250426
 Ar        14.1393483188       -2.9758412016       24.6677863512
 Ar        -3.3552536686       -0.6723579677       -7.3734348885
 Ar         7.7834448518        3.3063631952       -0.0887427650
 Ar        -1.1266027745      -17.1652896458      -12.9132588706
 Ar        -9.2152570446      -10.4839620185       -8.4126815591
 Ar        -6.4828499239       -3.8993038681      -10.6641695320
 Ar         0.9732337811       13.7391049168        5.0901163139
 Ar         8.8659577843        9.9635714307        1.0903136833
 Ar        -6.5698245995      -20.3951060935       -7.3093772157
 Ar        -0.4432015878       19.5959301171       11.0221749032
 Ar         7.3597881515       -2.6876725463        7.2602159857
 Ar        13.8796589624       12.1776844327        1.2507751731
 Ar        -3.6740209149       19.7706441040      -11.8228403341
 Ar         1.5126673043       -5.4049979361        1.9196072884
 Ar        18.5900879933        2.9937654589        2.0595232604
 Ar         6.2123637713       -9.4795086919        5.5478328374
 Ar         3.6883636699        3.4446262183       -4.3119054918
 Ar         2.6555565494        2.2996584861        6.0045175858
 Ar        24.5250246246        3.9792409323       13.1596661237
 Ar        -0.6217082048        3.6428138171        6.3815853483
     108
 i =        3, time =       15.000, E =        -0.2077242700
 Ar        -8.5077992650      -15.5998288886        2.8500017110
 Ar         1.5413825157        9.2775238562       11.1685985398
 Ar        11.9813102455       -7.5016655215       -9.9859376281
 Ar       -12.6355226745       -3.3709119393        4.0899772451
 Ar        -1.7305826916       -0.2478180804       13.2070347372
 Ar         8.0315209654       -2.5873400614       -4.1003664672
 Ar         8.5789563191        4.0000248111        5.5912602566
 Ar        -3.9226141633      -10.3127270609       -7.0002377986
 Ar        -3.3785637551      -16.0909751810       16.1149532220
 Ar         9.7854088626      -16.2232510068       -5.7104201766
 Ar         0.4955987980       -4.1961057664       12.4716671847
 Ar        15.5783475704       -7.9869574076        2.2365720000
 Ar        -5.4052141327       -2.6395272207       -0.7055061702
 Ar        -0.1112458312       -1.7422977281       -7.0991943174
 Ar         7.5244588932       -5.4931146713      -12.8870445848
 Ar        -5.4138571311        0.5759839760        2.0442784153
 Ar       -11.8604142890        3.3745015851        3.7493286236
 Ar        16.7118980856       -7.4623285237       -1.0163557398
 Ar       -20.4441226381       -5.7365319692        4.8140148676
 Ar        14.8362330119       -1.3983478148      -16.0739053708
 Ar         8.0582340669       -8.1440430227       -4.7130242954
 Ar        12.2495043726       -1.7058610622       12.9534207700
 Ar        -0.3909644073      -11.1178761626       20.4430409798
 Ar         2.2249836750        5.9156408338      -11.1696003369
 Ar       -13.9861159312        8.7955136017        8.0599830503
 Ar       -10.2829868405        6.4062991926      -15.3144573514
 Ar        -2.7086876348      -21.5204402544       10.8781304156
 Ar       -17.7854301862      -10.7833821493       -4.8383940356
 Ar         5.1999385358       -6.7964794060       -6.0616836487
 Ar         3.4977526732      -10.1228725797        2.9582749641
 Ar       -16.1599553198       -5.1559621969        8.5895769061
 Ar        -5.8242504904        4.3391619944        2.5768498494
 Ar         6.3351750948       27.5978648097       15.0501382206
 Ar        -3.1789106820       23.2788725071      -16.8192516107
 Ar        -4.1630316133        9.3755998447       16.5725698253
 Ar        -7.6723923737       -9.5465094614      -29.8188296128
 Ar         0.5099546739       13.9432993272       -0.3957942979
 Ar        -5.2863796210       -5.5008411964      -20.2912591756
 Ar        22.9943392297        6.7792417990       -1.9837684647
 Ar        19.7416746269      -10.2380143676       -3.3295975088
 Ar         0.1601673821        6.5991964615        8.8732484688
 Ar         5.5699438875        0.2098518333        1.0167480730
 Ar        -3.6535593066        3.9519678374       25.8631653818
 Ar        -0.2430506088       20.4365046434       -2.5153327043
 Ar         2.9020583461        0.8242520204        9.9660239333
 Ar         3.2997654190       -2.9346098433       -6.3710602053
 Ar        -6.1412229136       -6.8447296997       -6.5046796861
 Ar       -23.2282968065      -28.0928095124        7.1382613777
 Ar         4.0827869661        2.7115447140       -0.8602103429
 Ar        14.6343875595        2.7980993214        1.9423498262
 Ar        18.9795199400       16.5689263823       13.3411788966
 Ar       -28.5873900238        2.8217277232       -9.2134296563
 Ar        -5.9581193775      -16.1797463121       -9.2086878231
 Ar        10.0499425492       16.3876941318        5.1293881471
 Ar        -7.2566512054        6.3403430951       -0.7163466463
 Ar       -12.0320820980      -10.4850876577       -6.4377470574
 Ar        -8.5061376495       12.8917537307       -0.9022943722
 Ar       -25.3325068235        3.3229862766       -7.9121446514
 Ar         2.9043226983      -12.9672668315       -7.9203343982
 Ar       -13.5898485858       11.9803932703       -3.5568705567
 Ar        13.1321868350        4.9867849488       -3.4852121089
 Ar       -13.3194823754       16.0177520417        7.0552068344
 Ar        -4.1526318756      -19.5061612840       21.0190752011
 Ar        -8.4074942688       16.2915522818      -18.2709172808
 Ar         0.7682887032        9.6086022941       22.1493317173
 Ar        -2.9229734394       -7.9916715682      -21.3254362406
 Ar        -6.4136854812       -4.5515535500        2.7806302287
 Ar        -4.0191781537      -14.9142097624       -5.5512265715
 Ar       -27.8427807525        0.8075078081       -3.0248858421
 Ar        -2.8172405489        7.1218698928        6.1360757386
 Ar        -8.6678131406       -6.6519342761       -9.1126593649
 Ar       -11.9644195881       -2.2301965376       -1.8504020131
 Ar        22.6975906405       12.1679420154        1.0252825738
 Ar         6.2819845668       -0.7401299876       -6.9316888530
 Ar         3.4813064228       -8.0197837761       -0.4358492770
 Ar         0.3690145093       17.8367897594      -17.4153916217
 Ar        21.2101990717       10.2033586939      -13.0497782421
 Ar         1.2081745418        5.8376554501       16.8155258291
 Ar        -7.0793393159        6.0274186462      -22.3506456964
 Ar        -0.0197252323       17.5115062504        7.3608541743
 Ar        15.0890898310        9.9066690053       -8.4539107596
 Ar        -6.6186967869      -15.0397290026       14.7022059885
 Ar        -2.2292914435       -4.2198772125       -2.4707331712
 Ar         5.1922993753      -22.6323878293        7.4114036366
 Ar        -8.8829550421       -2.4802774855        2.3421387148
 Ar         6.7421656487        0.4395846333        5.4551647367
 Ar        11.9261503563        8.1656068268        2.3966364557
 Ar       -14.5339129709       -0.4869016403      -13.6945723830
 Ar        14.1514004377       -2.9698886801       24.6584077891
 Ar        -3.3577683321       -0.6669792888       -7.3741880480
 Ar         7.7787061762        3.3061393182       -0.0968161977
 Ar        -1.1236961660      -17.1643071663      -12.9144096015
 Ar        -9.2174365912      -10.4832783538       -8.4268239993
 Ar        -6.4848315901       -3.8959157506      -10.6717649643
 Ar         0.9657174296       13.7404601892        5.0992871734
 Ar         8.8683446275        9.9644530739        1.0886609833
 Ar        -6.5643833779      -20.3914391143       -7.3188331973
 Ar        -0.4401010390       19.6008350169       11.0154368312
 Ar         7.3595046064       -2.6834470326        7.2598634006
 Ar        13.8803548436       12.1717093401        1.2515395443
 Ar        -3.6829262852       19.7642303754      -11.8263772902
 Ar         1.5206114649       -5.4117432388        1.9177594875
 Ar        18.5922958686        2.9865903802        2.0576296919
 Ar         6.2144798060       -9.4822485809        5.5473478167
 Ar         3.7071419230        3.4510110811       -4.3123114216
 Ar         2.6442035196        2.3027940198        6.0141252696
 Ar        24.5319847955        3.9655385675       13.1687447375
 Ar        -0.6321509537        3.6507389507        6.3804658216
     108
 i =        4, time =       20.000, E =        -0.2081020892
 Ar        -8.4981943887      -15.6053730386        2.8473830276
 Ar         1.5449376952        9.2751735079       11.1658785860
 Ar        11.9772669548       -7.5059912081       -9.9928046815
 Ar       -12.6208887039       -3.3808477391        4.0953061417
 Ar        -1.7169172987       -0.2530291063       13.2089708455
 Ar         8.0363526057       -2.5924802024       -4.0920772907
 Ar         8.5790434385        3.9954334376        5.5970936028
 Ar        -3.9328433816      -10.3174363140       -7.0040404850
 Ar        -3.3869118473      -16.0834996961       16.1072555351
 Ar         9.7838513287      -16.2111935250       -5.7140815961
 Ar         0.4919358326       -4.1851621715       12.4672245794
 Ar        15.5831642058       -7.9890579682        2.2458101510
 Ar        -5.4037613033       -2.6367025937       -0.7131711126
 Ar        -0.1149898446       -1.7444322045       -7.0921696905
 Ar         7.5238332929       -5.4811938461      -12.8861839820
 Ar        -5.3987757823        0.5793948645        2.0456414655
 Ar       -11.8608673048        3.3648171372        3.7565583830
 Ar        16.7103037844       -7.4592013091       -1.0148003436
 Ar       -20.4394078991       -5.7364456921        4.8124966277
 Ar        14.8325138265       -1.3928264549      -16.0706265526
 Ar         8.0638126869       -8.1458718439       -4.6990846556
 Ar        12.2408436042       -1.7060300512       12.9504793934
 Ar        -0.3805962954      -11.1183034309       20.4393163609
 Ar         2.2060550077        5.9139118517      -11.1682209482