 DBCSR| CPU Multiplication driver                                           XSMM
 DBCSR| Multrec recursion limit                                              512
 DBCSR| Multiplication stack size                                           1000
 DBCSR| Maximum elements for images                                    UNLIMITED
 DBCSR| Multiplicative factor virtual images                                   1
 DBCSR| Use multiplication densification                                       T
 DBCSR| Multiplication size stacks                                             3
 DBCSR| Use memory pool for CPU allocation                                     F
 DBCSR| OMP: Current number of threads                                        12
 DBCSR| OMP: Max number of threads                                            12
 DBCSR| Split modifier for TAS multiplication algorithm                  1.0E+00


  **** **** ******  **  PROGRAM STARTED AT               2023-01-25 03:28:51.276
 ***** ** ***  *** **   PROGRAM STARTED ON                              Tha-DELL
 **    ****   ******    PROGRAM STARTED BY                                 thang
 ***** **    ** ** **   PROGRAM PROCESS ID                                  1514
  **** **  *******  **  PROGRAM STARTED IN  /cygdrive/c/DATA/work/w23_CP2K/MD_LJ

 CP2K| version string:                                       CP2K version 2022.1
 CP2K| source code revision number:                                  git:2caeb6f
 CP2K| cp2kflags: omp libint fftw3 libxc pexsi quip xsmm spglib sirius libvori l
 CP2K|            ibbqb
 CP2K| is freely available from                            https://www.cp2k.org/
 CP2K| Program compiled at                          Sun Aug 14 20:01:09 JST 2022
 CP2K| Program compiled on                                       DESKTOP-2FK7NUA
 CP2K| Program compiled for                         Cygwin-x86_64-gfortran-pexsi
 CP2K| Data directory path                           /home/user/cp2k-2022.1/data
 CP2K| Input file name                                                 md_Ar.inp

 GLOBAL| Force Environment number                                              1
 GLOBAL| Basis set file name                                           BASIS_SET
 GLOBAL| Potential file name                                           POTENTIAL
 GLOBAL| MM Potential file name                                     MM_POTENTIAL
 GLOBAL| Coordinate file name                                      __STD_INPUT__
 GLOBAL| Method name                                                        CP2K
 GLOBAL| Project name                                                      ar108
 GLOBAL| Run type                                                             MD
 GLOBAL| FFT library                                                       FFTW3
 GLOBAL| Diagonalization library                                       ScaLAPACK
 GLOBAL| Orthonormality check for eigenvectors                          DISABLED
 GLOBAL| Matrix multiplication library                                 ScaLAPACK
 GLOBAL| All-to-all communication in single precision                          F
 GLOBAL| FFTs using library dependent lengths                                  F
 GLOBAL| Grid backend                                                       AUTO
 GLOBAL| Global print level                                               MEDIUM
 GLOBAL| MPI I/O enabled                                                       T
 GLOBAL| Total number of message passing processes                             1
 GLOBAL| Number of threads for this process                                   12
 GLOBAL| This output is from process                                           0
 GLOBAL| Stack size for threads created by OpenMP (OMP_STACKSIZE)        default
 GLOBAL| CPU model name                   AMD Ryzen 5 5500U with Radeon Graphics
 GLOBAL| CPUID                                                              1002

 MEMORY| system memory details [Kb]
 MEMORY|                        rank 0           min           max       average
 MEMORY| MemTotal              7708924       7708924       7708924       7708924
 MEMORY| MemFree               1470012       1470012       1470012       1470012
 MEMORY| Buffers                     0             0             0             0
 MEMORY| Cached                      0             0             0             0
 MEMORY| Slab                        0             0             0             0
 MEMORY| SReclaimable                0             0             0             0
 MEMORY| MemLikelyFree         1470012       1470012       1470012       1470012


 *** Fundamental physical constants (SI units) ***

 *** Literature: B. J. Mohr and B. N. Taylor,
 ***             CODATA recommended values of the fundamental physical
 ***             constants: 2006, Web Version 5.1
 ***             http://physics.nist.gov/constants

 Speed of light in vacuum [m/s]                             2.99792458000000E+08
 Magnetic constant or permeability of vacuum [N/A**2]       1.25663706143592E-06
 Electric constant or permittivity of vacuum [F/m]          8.85418781762039E-12
 Planck constant (h) [J*s]                                  6.62606896000000E-34
 Planck constant (h-bar) [J*s]                              1.05457162825177E-34
 Elementary charge [C]                                      1.60217648700000E-19
 Electron mass [kg]                                         9.10938215000000E-31
 Electron g factor [ ]                                     -2.00231930436220E+00
 Proton mass [kg]                                           1.67262163700000E-27
 Fine-structure constant                                    7.29735253760000E-03
 Rydberg constant [1/m]                                     1.09737315685270E+07
 Avogadro constant [1/mol]                                  6.02214179000000E+23
 Boltzmann constant [J/K]                                   1.38065040000000E-23
 Atomic mass unit [kg]                                      1.66053878200000E-27
 Bohr radius [m]                                            5.29177208590000E-11

 *** Conversion factors ***

 [u] -> [a.u.]                                              1.82288848426455E+03
 [Angstrom] -> [Bohr] = [a.u.]                              1.88972613288564E+00
 [a.u.] = [Bohr] -> [Angstrom]                              5.29177208590000E-01
 [a.u.] -> [s]                                              2.41888432650478E-17
 [a.u.] -> [fs]                                             2.41888432650478E-02
 [a.u.] -> [J]                                              4.35974393937059E-18
 [a.u.] -> [N]                                              8.23872205491840E-08
 [a.u.] -> [K]                                              3.15774647902944E+05
 [a.u.] -> [kJ/mol]                                         2.62549961709828E+03
 [a.u.] -> [kcal/mol]                                       6.27509468713739E+02
 [a.u.] -> [Pa]                                             2.94210107994716E+13
 [a.u.] -> [bar]                                            2.94210107994716E+08
 [a.u.] -> [atm]                                            2.90362800883016E+08
 [a.u.] -> [eV]                                             2.72113838565563E+01
 [a.u.] -> [Hz]                                             6.57968392072181E+15
 [a.u.] -> [1/cm] (wave numbers)                            2.19474631370540E+05
 [a.u./Bohr**2] -> [1/cm]                                   5.14048714338585E+03
 


                      ************* ******** ***********   
                     ************* **********************  
                     ****     **** ****      ***********   
                     ******** ****  *******     ****       
                     *******  ****   *******   ****        
                     ****     ****       ****  ****        
                     ****     **** **********  ****        
                      ****     **** ********    ****       
                     FRONTIERS IN SIMULATION TECHNOLOGY    
                                                           
                        C.J. Mundy, S. Balasubramanian,    
                     Ken Bagchi, J. Hutter, Ari Seitsonen  
                      IFW Kuo, T. Laino, J. VandeVondele   
                                 Version 1.0               

                                                           


 CELL| Volume [angstrom^3]:                                          5051.263108
 CELL| Vector a [angstrom]:      17.158     0.000     0.000   |a| =    17.158000
 CELL| Vector b [angstrom]:       0.000    17.158     0.000   |b| =    17.158000
 CELL| Vector c [angstrom]:       0.000     0.000    17.158   |c| =    17.158000
 CELL| Angle (b,c), alpha [degree]:                                    90.000000
 CELL| Angle (a,c), beta  [degree]:                                    90.000000
 CELL| Angle (a,b), gamma [degree]:                                    90.000000
 CELL| Numerically orthorhombic:                                             YES

 CELL_REF| Volume [angstrom^3]:                                      5051.263108
 CELL_REF| Vector a [angstrom    17.158     0.000     0.000   |a| =    17.158000
 CELL_REF| Vector b [angstrom     0.000    17.158     0.000   |b| =    17.158000
 CELL_REF| Vector c [angstrom     0.000     0.000    17.158   |c| =    17.158000
 CELL_REF| Angle (b,c), alpha [degree]:                                90.000000
 CELL_REF| Angle (a,c), beta  [degree]:                                90.000000
 CELL_REF| Angle (a,b), gamma [degree]:                                90.000000
 CELL_REF| Numerically orthorhombic:                                         YES
 EWALD|                                                                 not used

 CELL_TOP| Volume [angstrom^3]:                                      5051.263108
 CELL_TOP| Vector a [angstrom    17.158     0.000     0.000   |a| =    17.158000
 CELL_TOP| Vector b [angstrom     0.000    17.158     0.000   |b| =    17.158000
 CELL_TOP| Vector c [angstrom     0.000     0.000    17.158   |c| =    17.158000
 CELL_TOP| Angle (b,c), alpha [degree]:                                90.000000
 CELL_TOP| Angle (a,c), beta  [degree]:                                90.000000
 CELL_TOP| Angle (a,b), gamma [degree]:                                90.000000
 CELL_TOP| Numerically orthorhombic:                                         YES

 GENERATE|  Preliminary Number of Bonds generated:                             0
 GENERATE|  Achieved consistency in connectivity generation.
 CHARGE_INFO| Total Charge of the Classical System:                     0.000000

 FORCEFIELD| WARNING: A non Critical ForceField parameter is missing! CP2K GOES!
 FORCEFIELD| Non critical parameters are:Urey-Bradley,Torsions,Impropers, Opbends and 1-4
 FORCEFIELD| All missing parameters will not contribute to the potential energy!
 FORCEFIELD| Activate the print key FF_INFO to have a list of missing parameters


 SPLINE_INFO| Generating 1 splines for NONBONDED14 interactions 
              Due to 1 different atomic kinds
  ...1
 SPLINE_INFO| Number of unique splines computed:            1
 SPLINE_INFO| Done

 SPLINE_INFO| Generating 1 splines for NONBONDED interactions 
              Due to 1 different atomic kinds
  ...1
 SPLINE_INFO| Number of unique splines computed:            1
 SPLINE_INFO| Done


 MOLECULE KIND INFORMATION


 All atoms are their own molecule, skipping detailed information


 MODULE FIST:  ATOMIC COORDINATES IN ANGSTROM

  Atom  Kind  ATM_TYP       X           Y           Z          q(eff)       Mass

     1    1   Ar        -8.538690  -15.581626    2.856637      0.00      39.9480
     2    1   Ar         1.530073    9.285282   11.177782      0.00      39.9480
     3    1   Ar        11.991023   -7.488253   -9.965453      0.00      39.9480
     4    1   Ar       -12.678240   -3.341059    4.074711      0.00      39.9480
     5    1   Ar        -1.770463   -0.232459   13.201295      0.00      39.9480
     6    1   Ar         8.017614   -2.572496   -4.127206      0.00      39.9480
     7    1   Ar         8.578495    4.013967    5.573688      0.00      39.9480
     8    1   Ar        -3.892007  -10.293092   -6.986402      0.00      39.9480
     9    1   Ar        -3.354572  -16.111962   16.135852      0.00      39.9480
    10    1   Ar         9.789572  -16.262826   -5.697909      0.00      39.9480
    11    1   Ar         0.505143   -4.229784   12.485417      0.00      39.9480
    12    1   Ar        15.563224   -7.980489    2.209947      0.00      39.9480
    13    1   Ar        -5.407416   -2.647645   -0.681485      0.00      39.9480
    14    1   Ar        -0.098372   -1.736740   -7.119155      0.00      39.9480
    15    1   Ar         7.526558   -5.529700  -12.888615      0.00      39.9480
    16    1   Ar        -5.456554    0.564446    2.039025      0.00      39.9480
    17    1   Ar       -11.859100    3.404074    3.726879      0.00      39.9480
    18    1   Ar        16.717536   -7.471324   -1.022745      0.00      39.9480
    19    1   Ar       -20.457213   -5.737008    4.818451      0.00      39.9480
    20    1   Ar        14.848552   -1.416086  -16.083911      0.00      39.9480
    21    1   Ar         8.043795   -8.140338   -4.755431      0.00      39.9480
    22    1   Ar        12.273844   -1.705898   12.962249      0.00      39.9480
    23    1   Ar        -0.421852  -11.117749   20.454536      0.00      39.9480
    24    1   Ar         2.281943    5.920839  -11.173245      0.00      39.9480
    25    1   Ar       -13.964847    8.779239    8.073734      0.00      39.9480
    26    1   Ar       -10.314744    6.385296  -15.341196      0.00      39.9480
    27    1   Ar        -2.719000  -21.489007   10.867810      0.00      39.9480
    28    1   Ar       -17.792388  -10.784090   -4.839550      0.00      39.9480
    29    1   Ar         5.234941   -6.792229   -6.071877      0.00      39.9480
    30    1   Ar         3.524488  -10.122595    2.968290      0.00      39.9480
    31    1   Ar       -16.158660   -5.182743    8.570727      0.00      39.9480
    32    1   Ar        -5.809828    4.326402    2.555991      0.00      39.9480
    33    1   Ar         6.291601   27.574134   15.024641      0.00      39.9480
    34    1   Ar        -3.187417   23.299647  -16.803485      0.00      39.9480
    35    1   Ar        -4.202258    9.360377   16.589131      0.00      39.9480
    36    1   Ar        -7.643929   -9.524324  -29.822873      0.00      39.9480
    37    1   Ar         0.545353   13.924055   -0.383787      0.00      39.9480
    38    1   Ar        -5.274329   -5.538138  -20.301470      0.00      39.9480
    39    1   Ar        22.992185    6.786194   -1.982899      0.00      39.9480
    40    1   Ar        19.772003  -10.237334   -3.330818      0.00      39.9480
    41    1   Ar         0.156777    6.596301    8.907491      0.00      39.9480
    42    1   Ar         5.579374    0.233106    1.027523      0.00      39.9480
    43    1   Ar        -3.643436    3.964489   25.875212      0.00      39.9480
    44    1   Ar        -0.248492   20.448973   -2.512204      0.00      39.9480
    45    1   Ar         2.936267    0.859812    9.967433      0.00      39.9480
    46    1   Ar         3.303843   -2.924213   -6.349270      0.00      39.9480
    47    1   Ar        -6.154902   -6.849615   -6.462041      0.00      39.9480
    48    1   Ar       -23.238829  -28.121309    7.137210      0.00      39.9480
    49    1   Ar         4.115263    2.715641   -0.852030      0.00      39.9480
    50    1   Ar        14.619415    2.808152    1.936020      0.00      39.9480
    51    1   Ar        18.966795   16.570089   13.342344      0.00      39.9480
    52    1   Ar       -28.612416    2.843536   -9.236020      0.00      39.9480
    53    1   Ar        -5.970046  -16.223017   -9.229281      0.00      39.9480
    54    1   Ar        10.048108   16.385482    5.125787      0.00      39.9480
    55    1   Ar        -7.225085    6.346154   -0.680757      0.00      39.9480
    56    1   Ar       -12.013891  -10.465311   -6.434348      0.00      39.9480
    57    1   Ar        -8.531699   12.897659   -0.890361      0.00      39.9480
    58    1   Ar       -25.370069    3.331199   -7.939177      0.00      39.9480
    59    1   Ar         2.901635  -12.966818   -7.949078      0.00      39.9480
    60    1   Ar       -13.596394   11.989658   -3.550688      0.00      39.9480
    61    1   Ar        13.141603    4.971438   -3.508413      0.00      39.9480
    62    1   Ar       -13.329546   16.041002    7.052828      0.00      39.9480
    63    1   Ar        -4.150683  -19.511191   21.025597      0.00      39.9480
    64    1   Ar        -8.429443   16.306516  -18.288782      0.00      39.9480
    65    1   Ar         0.788636    9.590168   22.177261      0.00      39.9480
    66    1   Ar        -2.926068   -7.974081  -21.351990      0.00      39.9480
    67    1   Ar        -6.399599   -4.562805    2.755336      0.00      39.9480
    68    1   Ar        -4.044239  -14.927597   -5.585615      0.00      39.9480
    69    1   Ar       -27.852491    0.802052   -3.026638      0.00      39.9480
    70    1   Ar        -2.839665    7.116271    6.185473      0.00      39.9480
    71    1   Ar        -8.683279   -6.670883   -9.158155      0.00      39.9480
    72    1   Ar       -11.962085   -2.209562   -1.839800      0.00      39.9480
    73    1   Ar        22.684855   12.204721    1.012388      0.00      39.9480
    74    1   Ar         6.295010   -0.769712   -6.914543      0.00      39.9480
    75    1   Ar         3.499955   -8.007049   -0.426527      0.00      39.9480
    76    1   Ar         0.385155   17.876974  -17.406523      0.00      39.9480
    77    1   Ar        21.228887   10.232710  -13.087220      0.00      39.9480
    78    1   Ar         1.220826    5.835974   16.845010      0.00      39.9480
    79    1   Ar        -7.087540    6.034130  -22.325145      0.00      39.9480
    80    1   Ar        -0.024427   17.469361    7.371167      0.00      39.9480
    81    1   Ar        15.098182    9.889405   -8.493827      0.00      39.9480
    82    1   Ar        -6.578777  -15.048453   14.723036      0.00      39.9480
    83    1   Ar        -2.226667   -4.184219   -2.470079      0.00      39.9480
    84    1   Ar         5.206211  -22.656518    7.394757      0.00      39.9480
    85    1   Ar        -8.858288   -2.475107    2.354414      0.00      39.9480
    86    1   Ar         6.752024    0.430391    5.434925      0.00      39.9480
    87    1   Ar        11.926313    8.132673    2.400811      0.00      39.9480
    88    1   Ar       -14.550756   -0.471541  -13.705843      0.00      39.9480
    89    1   Ar        14.115769   -2.989686   24.684280      0.00      39.9480
    90    1   Ar        -3.351073   -0.681363   -7.370399      0.00      39.9480
    91    1   Ar         7.792699    3.306876   -0.073238      0.00      39.9480
    92    1   Ar        -1.132891  -17.167284  -12.912647      0.00      39.9480
    93    1   Ar        -9.210543  -10.484651   -8.384858      0.00      39.9480
    94    1   Ar        -6.478488   -3.907367  -10.649967      0.00      39.9480
    95    1   Ar         0.987875   13.736359    5.072097      0.00      39.9480
    96    1   Ar         8.860978    9.961039    1.093738      0.00      39.9480
    97    1   Ar        -6.580688  -20.401935   -7.289356      0.00      39.9480
    98    1   Ar        -0.448977   19.586252   11.035120      0.00      39.9480
    99    1   Ar         7.360569   -2.695943    7.260819      0.00      39.9480
   100    1   Ar        13.879134   12.190347    1.248899      0.00      39.9480
   101    1   Ar        -3.657828   19.782906  -11.816151      0.00      39.9480
   102    1   Ar         1.497295   -5.392900    1.924458      0.00      39.9480
   103    1   Ar        18.586161    3.008684    2.064401      0.00      39.9480
   104    1   Ar         6.207308   -9.474184    5.549305      0.00      39.9480
   105    1   Ar         3.650548    3.431811   -4.311608      0.00      39.9480
   106    1   Ar         2.678626    2.293006    5.985030      0.00      39.9480
   107    1   Ar        24.511312    4.007332   13.141250      0.00      39.9480
   108    1   Ar        -0.600233    3.628256    6.384113      0.00      39.9480



 MD_PAR| Molecular dynamics protocol (MD input parameters)
 MD_PAR| Ensemble type                                                       NVE
 MD_PAR| Number of time steps                                                100
 MD_PAR| Time step [fs]                                                 5.000000
 MD_PAR| Temperature [K]                                               85.000000
 MD_PAR| Temperature tolerance [K]                                      0.000000
 MD_PAR| Print MD information every                                    1 step(s)
 MD_PAR| File type   Print frequency [steps]                          File names
 MD_PAR| Coordinates          1                                  ar108-pos-1.xyz
 MD_PAR| Velocities           1                                  ar108-vel-1.xyz
 MD_PAR| Energies             1                                     ar108-1.ener
 MD_PAR| Dump                20                                  ar108-1.restart

 ROT| Rotational analysis information
 ROT| Principal axes and moments of inertia [a.u.]
 ROT|                           1                   2                   3
 ROT| Eigenvalues      5.75980946373E+09   6.63791840614E+09   7.09298621460E+09
 ROT|      x              0.704366976328      0.088016074472     -0.704358100183
 ROT|      y              0.587139214021     -0.629889070233      0.508436134199
 ROT|      z              0.398916916183      0.771681883832      0.495350748609
 ROT| Number of rotovibrational vectors                                        6

 DOF| Calculation of degrees of freedom
 DOF| Number of atoms                                                        108
 DOF| Number of intramolecular constraints                                     0
 DOF| Number of intermolecular constraints                                     0
 DOF| Invariants (translations + rotations)                                    3
 DOF| Degrees of freedom                                                     321

 DOF| Restraints information
 DOF| Number of intramolecular restraints                                      0
 DOF| Number of intermolecular restraints                                      0

 MD_VEL| Velocities initialization
 MD_VEL| Initial temperature [K]                                       85.000000
 MD_VEL| COM velocity             0.0000000000    -0.0000000000    -0.0000000000

 MM_DIPOLE| Dipole type                                   periodic (Berry phase)
 MM_DIPOLE| Moment [a.u.]           0.00000000       0.00000000       0.00000000
 MM_DIPOLE| Moment [Debye]          0.00000000       0.00000000       0.00000000
 MM_DIPOLE| Derivative [a.u.]       0.00000000       0.00000000       0.00000000

 ENERGY| Total FORCE_EVAL ( FIST ) energy [a.u.]:             -0.206517821785838

 MD_INI| MD initialization
 MD_INI| Potential energy [hartree]                          -0.206517821786E+00
 MD_INI| Kinetic energy [hartree]                             0.432032783208E-01
 MD_INI| Temperature [K]                                               85.000000
 MD_INI| Cell volume [bohr^3]                                 3.408761352211E+04
 MD_INI| Cell volume [ang^3]                                  5.051263108312E+03
 MD_INI| Cell lengths [bohr]      3.24239210E+01  3.24239210E+01  3.24239210E+01
 MD_INI| Cell lengths [ang]       1.71580000E+01  1.71580000E+01  1.71580000E+01
 MD_INI| Cell angles [deg]        9.00000000E+01  9.00000000E+01  9.00000000E+01

 MM_DIPOLE| Dipole type                                   periodic (Berry phase)
 MM_DIPOLE| Moment [a.u.]           0.00000000       0.00000000       0.00000000
 MM_DIPOLE| Moment [Debye]          0.00000000       0.00000000       0.00000000
 MM_DIPOLE| Derivative [a.u.]       0.00000000       0.00000000       0.00000000

 ENERGY| Total FORCE_EVAL ( FIST ) energy [a.u.]:             -0.206924301870149

 MD_VEL| Centre of mass motion (COM)
 MD_VEL| VCOM [a.u.]              0.0000000000    -0.0000000000    -0.0000000000

 MD| ***************************************************************************
 MD| Step number                                                               1
 MD| Time [fs]                                                          5.000000
 MD| Conserved quantity [hartree]                            -0.163315144862E+00
 MD| ---------------------------------------------------------------------------
 MD|                                          Instantaneous             Averages
 MD| CPU time per MD step [s]                      0.047473             0.047473
 MD| Energy drift per atom [K]          -0.175838917694E-02   0.000000000000E+00
 MD| Potential energy [hartree]         -0.206924301870E+00  -0.206924301870E+00
 MD| Kinetic energy [hartree]            0.436091570078E-01   0.436091570078E-01
 MD| Temperature [K]                              85.798543            85.798543
 MD| ***************************************************************************
 MD| Estimated peak process memory after this step [MiB]                     112

 MM_DIPOLE| Dipole type                                   periodic (Berry phase)
 MM_DIPOLE| Moment [a.u.]           0.00000000       0.00000000       0.00000000
 MM_DIPOLE| Moment [Debye]          0.00000000       0.00000000       0.00000000
 MM_DIPOLE| Derivative [a.u.]       0.00000000       0.00000000       0.00000000

 ENERGY| Total FORCE_EVAL ( FIST ) energy [a.u.]:             -0.207329070051245

 MD_VEL| Centre of mass motion (COM)
 MD_VEL| VCOM [a.u.]              0.0000000000    -0.0000000000    -0.0000000000

 MD| ***************************************************************************
 MD| Step number                                                               2
 MD| Time [fs]                                                         10.000000
 MD| Conserved quantity [hartree]                            -0.163315638493E+00
 MD| ---------------------------------------------------------------------------
 MD|                                          Instantaneous             Averages
 MD| CPU time per MD step [s]                      0.026145             0.036809
 MD| Energy drift per atom [K]          -0.320168533736E-02  -0.160084266868E-02
 MD| Potential energy [hartree]         -0.207329070051E+00  -0.207126685961E+00
 MD| Kinetic energy [hartree]            0.440134315584E-01   0.438112942831E-01
 MD| Temperature [K]                              86.593931            86.196237
 MD| ***************************************************************************
 MD| Estimated peak process memory after this step [MiB]                     112

 MM_DIPOLE| Dipole type                                   periodic (Berry phase)
 MM_DIPOLE| Moment [a.u.]           0.00000000       0.00000000       0.00000000
 MM_DIPOLE| Moment [Debye]          0.00000000       0.00000000       0.00000000
 MM_DIPOLE| Derivative [a.u.]       0.00000000       0.00000000       0.00000000

 ENERGY| Total FORCE_EVAL ( FIST ) energy [a.u.]:             -0.207724269977856

 MD_VEL| Centre of mass motion (COM)
 MD_VEL| VCOM [a.u.]              0.0000000000    -0.0000000000    -0.0000000000

 MD| ***************************************************************************
 MD| Step number                                                               3
 MD| Time [fs]                                                         15.000000
 MD| Conserved quantity [hartree]                            -0.163316185701E+00
 MD| ---------------------------------------------------------------------------
 MD|                                          Instantaneous             Averages
 MD| CPU time per MD step [s]                      0.024359             0.032659
 MD| Energy drift per atom [K]          -0.480163317060E-02  -0.266777283599E-02
 MD| Potential energy [hartree]         -0.207724269978E+00  -0.207325880633E+00
 MD| Kinetic energy [hartree]            0.444080842772E-01   0.440102242811E-01
 MD| Temperature [K]                              87.370387            86.587620
 MD| ***************************************************************************
 MD| Estimated peak process memory after this step [MiB]                     112

 MM_DIPOLE| Dipole type                                   periodic (Berry phase)
 MM_DIPOLE| Moment [a.u.]           0.00000000       0.00000000       0.00000000
 MM_DIPOLE| Moment [Debye]          0.00000000       0.00000000       0.00000000
 MM_DIPOLE| Derivative [a.u.]       0.00000000       0.00000000       0.00000000

 ENERGY| Total FORCE_EVAL ( FIST ) energy [a.u.]:             -0.208102089175215

 MD_VEL| Centre of mass motion (COM)
 MD_VEL| VCOM [a.u.]              0.0000000000     0.0000000000    -0.0000000000

 MD| ***************************************************************************
 MD| Step number                                                               4
 MD| Time [fs]                                                         20.000000
 MD| Conserved quantity [hartree]                            -0.163316786226E+00
 MD| ---------------------------------------------------------------------------
 MD|                                          Instantaneous             Averages
 MD| CPU time per MD step [s]                      0.025670             0.030911
 MD| Energy drift per atom [K]          -0.655747401913E-02  -0.364019813177E-02
 MD| Potential energy [hartree]         -0.208102089175E+00  -0.207519932769E+00
 MD| Kinetic energy [hartree]            0.447853029488E-01   0.442039939480E-01
 MD| Temperature [K]                              88.112544            86.968851
 MD| ***************************************************************************
 MD| Estimated peak process memory after this step [MiB]                     112

 MM_DIPOLE| Dipole type                                   periodic (Berry phase)
 MM_DIPOLE| Moment [a.u.]           0.00000000       0.00000000       0.00000000
 MM_DIPOLE| Moment [Debye]          0.00000000       0.00000000       0.00000000
 MM_DIPOLE| Derivative [a.u.]       0.00000000       0.00000000       0.00000000

 ENERGY| Total FORCE_EVAL ( FIST ) energy [a.u.]:             -0.208454654886749

 MD_VEL| Centre of mass motion (COM)
 MD_VEL| VCOM [a.u.]              0.0000000000     0.0000000000    -0.0000000000

 MD| ***************************************************************************
 MD| Step number                                                               5
 MD| Time [fs]                                                         25.000000
 MD| Conserved quantity [hartree]                            -0.163317305554E+00
 MD| ---------------------------------------------------------------------------
 MD|                                          Instantaneous             Averages
 MD| CPU time per MD step [s]                      0.024824             0.029694
 MD| Energy drift per atom [K]          -0.807590457480E-02  -0.452733942038E-02
 MD| Potential energy [hartree]         -0.208454654887E+00  -0.207706877192E+00
 MD| Kinetic energy [hartree]            0.451373493327E-01   0.443906650249E-01
 MD| Temperature [K]                              88.805175            87.336116
 MD| ***************************************************************************
 MD| Estimated peak process memory after this step [MiB]                     112

 MM_DIPOLE| Dipole type                                   periodic (Berry phase)
 MM_DIPOLE| Moment [a.u.]           0.00000000       0.00000000       0.00000000
 MM_DIPOLE| Moment [Debye]          0.00000000       0.00000000       0.00000000
 MM_DIPOLE| Derivative [a.u.]       0.00000000       0.00000000       0.00000000

 ENERGY| Total FORCE_EVAL ( FIST ) energy [a.u.]:             -0.208775242699576

 MD_VEL| Centre of mass motion (COM)
 MD_VEL| VCOM [a.u.]              0.0000000000    -0.0000000000    -0.0000000000

 MD| ***************************************************************************
 MD| Step number                                                               6
 MD| Time [fs]                                                         30.000000
 MD| Conserved quantity [hartree]                            -0.163317808926E+00
 MD| ---------------------------------------------------------------------------
 MD|                                          Instantaneous             Averages
 MD| CPU time per MD step [s]                      0.025019             0.028915
 MD| Energy drift per atom [K]          -0.954768346514E-02  -0.536406342784E-02
 MD| Potential energy [hartree]         -0.208775242700E+00  -0.207884938110E+00
 MD| Kinetic energy [hartree]            0.454574337735E-01   0.445684598164E-01
 MD| Temperature [K]                              89.434923            87.685917
 MD| ***************************************************************************
 MD| Estimated peak process memory after this step [MiB]                     112

 MM_DIPOLE| Dipole type                                   periodic (Berry phase)
 MM_DIPOLE| Moment [a.u.]           0.00000000       0.00000000       0.00000000
 MM_DIPOLE| Moment [Debye]          0.00000000       0.00000000       0.00000000
 MM_DIPOLE| Derivative [a.u.]       0.00000000       0.00000000       0.00000000

 ENERGY| Total FORCE_EVAL ( FIST ) energy [a.u.]:             -0.209057768738434

 MD_VEL| Centre of mass motion (COM)
 MD_VEL| VCOM [a.u.]              0.0000000000    -0.0000000000    -0.0000000000

 MD| ***************************************************************************
 MD| Step number                                                               7
 MD| Time [fs]                                                         35.000000
 MD| Conserved quantity [hartree]                            -0.163318132441E+00
 MD| ---------------------------------------------------------------------------
 MD|                                          Instantaneous             Averages
 MD| CPU time per MD step [s]                      0.024349             0.028263
 MD| Energy drift per atom [K]          -0.104935903657E-01  -0.609685299039E-02
 MD| Potential energy [hartree]         -0.209057768738E+00  -0.208052485343E+00
 MD| Kinetic energy [hartree]            0.457396362970E-01   0.447357707422E-01
 MD| Temperature [K]                              89.990140            88.015092
 MD| ***************************************************************************
 MD| Estimated peak process memory after this step [MiB]                     112

 MM_DIPOLE| Dipole type                                   periodic (Berry phase)
 MM_DIPOLE| Moment [a.u.]           0.00000000       0.00000000       0.00000000
 MM_DIPOLE| Moment [Debye]          0.00000000       0.00000000       0.00000000
 MM_DIPOLE| Derivative [a.u.]       0.00000000       0.00000000       0.00000000

 ENERGY| Total FORCE_EVAL ( FIST ) energy [a.u.]:             -0.209297326138508

 MD_VEL| Centre of mass motion (COM)
 MD_VEL| VCOM [a.u.]              0.0000000000    -0.0000000000    -0.0000000000

 MD| ***************************************************************************
 MD| Step number                                                               8
 MD| Time [fs]                                                         40.000000
 MD| Conserved quantity [hartree]                            -0.163318385680E+00
 MD| ---------------------------------------------------------------------------
 MD|                                          Instantaneous             Averages
 MD| CPU time per MD step [s]                      0.025555             0.027924
 MD| Energy drift per atom [K]          -0.112340187361E-01  -0.673899870860E-02
 MD| Potential energy [hartree]         -0.209297326139E+00  -0.208208090442E+00
 MD| Kinetic energy [hartree]            0.459789404587E-01   0.448911669567E-01
 MD| Temperature [K]                              90.460958            88.320825
 MD| ***************************************************************************
 MD| Estimated peak process memory after this step [MiB]                     112

 MM_DIPOLE| Dipole type                                   periodic (Berry phase)
 MM_DIPOLE| Moment [a.u.]           0.00000000       0.00000000       0.00000000
 MM_DIPOLE| Moment [Debye]          0.00000000       0.00000000       0.00000000
 MM_DIPOLE| Derivative [a.u.]       0.00000000       0.00000000       0.00000000

 ENERGY| Total FORCE_EVAL ( FIST ) energy [a.u.]:             -0.209490355282704

 MD_VEL| Centre of mass motion (COM)
 MD_VEL| VCOM [a.u.]              0.0000000000    -0.0000000000    -0.0000000000

 MD| ***************************************************************************
 MD| Step number                                                               9
 MD| Time [fs]                                                         45.000000
 MD| Conserved quantity [hartree]                            -0.163318508134E+00
 MD| ---------------------------------------------------------------------------
 MD|                                          Instantaneous             Averages
 MD| CPU time per MD step [s]                      0.024524             0.027546
 MD| Energy drift per atom [K]          -0.115920562929E-01  -0.727822732907E-02
 MD| Potential energy [hartree]         -0.209490355283E+00  -0.208350564313E+00
 MD| Kinetic energy [hartree]            0.461718471483E-01   0.450334647558E-01
 MD| Temperature [K]                              90.840491            88.600788
 MD| ***************************************************************************
 MD| Estimated peak process memory after this step [MiB]                     112

 MM_DIPOLE| Dipole type                                   periodic (Berry phase)
 MM_DIPOLE| Moment [a.u.]           0.00000000       0.00000000       0.00000000
 MM_DIPOLE| Moment [Debye]          0.00000000       0.00000000       0.00000000
 MM_DIPOLE| Derivative [a.u.]       0.00000000       0.00000000       0.00000000

 ENERGY| Total FORCE_EVAL ( FIST ) energy [a.u.]:             -0.209634929498703

 MD_VEL| Centre of mass motion (COM)
 MD_VEL| VCOM [a.u.]              0.0000000000    -0.0000000000    -0.0000000000

 MD| ***************************************************************************
 MD| Step number                                                              10
 MD| Time [fs]                                                         50.000000
 MD| Conserved quantity [hartree]                            -0.163318520037E+00
 MD| ---------------------------------------------------------------------------
 MD|                                          Instantaneous             Averages
 MD| CPU time per MD step [s]                      0.025451             0.027337
 MD| Energy drift per atom [K]          -0.116268576386E-01  -0.771309036002E-02
 MD| Potential energy [hartree]         -0.209634929499E+00  -0.208479000832E+00
 MD| Kinetic energy [hartree]            0.463164094616E-01   0.451617592264E-01
 MD| Temperature [K]                              91.124909            88.853200
 MD| ***************************************************************************
 MD| Estimated peak process memory after this step [MiB]                     112

 MM_DIPOLE| Dipole type                                   periodic (Berry phase)
 MM_DIPOLE| Moment [a.u.]           0.00000000       0.00000000       0.00000000
 MM_DIPOLE| Moment [Debye]          0.00000000       0.00000000       0.00000000
 MM_DIPOLE| Derivative [a.u.]       0.00000000       0.00000000       0.00000000

 ENERGY| Total FORCE_EVAL ( FIST ) energy [a.u.]:             -0.209730886476819

 MD_VEL| Centre of mass motion (COM)
 MD_VEL| VCOM [a.u.]              0.0000000000    -0.0000000000    -0.0000000000

 MD| ***************************************************************************
 MD| Step number                                                              11
 MD| Time [fs]                                                         55.000000
 MD| Conserved quantity [hartree]                            -0.163318571319E+00
 MD| ---------------------------------------------------------------------------
 MD|                                          Instantaneous             Averages
 MD| CPU time per MD step [s]                      0.027274             0.027331
 MD| Energy drift per atom [K]          -0.117767969805E-01  -0.808251823461E-02
 MD| Potential energy [hartree]         -0.209730886477E+00  -0.208592808618E+00
 MD| Kinetic energy [hartree]            0.464123151581E-01   0.452754461293E-01
 MD| Temperature [K]                              91.313598            89.076873
 MD| ***************************************************************************
 MD| Estimated peak process memory after this step [MiB]                     112

 MM_DIPOLE| Dipole type                                   periodic (Berry phase)
 MM_DIPOLE| Moment [a.u.]           0.00000000       0.00000000       0.00000000
 MM_DIPOLE| Moment [Debye]          0.00000000       0.00000000       0.00000000
 MM_DIPOLE| Derivative [a.u.]       0.00000000       0.00000000       0.00000000

 ENERGY| Total FORCE_EVAL ( FIST ) energy [a.u.]:             -0.209779192958512

 MD_VEL| Centre of mass motion (COM)
 MD_VEL| VCOM [a.u.]              0.0000000000    -0.0000000000    -0.0000000000

 MD| ***************************************************************************
 MD| Step number                                                              12
 MD| Time [fs]                                                         60.000000
 MD| Conserved quantity [hartree]                            -0.163318544012E+00
 MD| ---------------------------------------------------------------------------
 MD|                                          Instantaneous             Averages
 MD| CPU time per MD step [s]                      0.025101             0.027145
 MD| Energy drift per atom [K]          -0.116969577094E-01  -0.838372152418E-02
 MD| Potential energy [hartree]         -0.209779192959E+00  -0.208691673980E+00
 MD| Kinetic energy [hartree]            0.464606489461E-01   0.453742130307E-01
 MD| Temperature [K]                              91.408692            89.271191
 MD| ***************************************************************************
 MD| Estimated peak process memory after this step [MiB]                     112

 MM_DIPOLE| Dipole type                                   periodic (Berry phase)
 MM_DIPOLE| Moment [a.u.]           0.00000000       0.00000000       0.00000000
 MM_DIPOLE| Moment [Debye]          0.00000000       0.00000000       0.00000000
 MM_DIPOLE| Derivative [a.u.]       0.00000000       0.00000000       0.00000000

 ENERGY| Total FORCE_EVAL ( FIST ) energy [a.u.]:             -0.209781873118617

 MD_VEL| Centre of mass motion (COM)
 MD_VEL| VCOM [a.u.]              0.0000000000    -0.0000000000    -0.0000000000

 MD| ***************************************************************************
 MD| Step number                                                              13
 MD| Time [fs]                                                         65.000000
 MD| Conserved quantity [hartree]                            -0.163318419762E+00
 MD| ---------------------------------------------------------------------------
 MD|                                          Instantaneous             Averages
 MD| CPU time per MD step [s]                      0.024573             0.026947
 MD| Energy drift per atom [K]          -0.113336684454E-01  -0.861064051811E-02
 MD| Potential energy [hartree]         -0.209781873119E+00  -0.208775535452E+00
 MD| Kinetic energy [hartree]            0.464634533570E-01   0.454580007481E-01
 MD| Temperature [K]                              91.414209            89.436039
 MD| ***************************************************************************
 MD| Estimated peak process memory after this step [MiB]                     112

 MM_DIPOLE| Dipole type                                   periodic (Berry phase)
 MM_DIPOLE| Moment [a.u.]           0.00000000       0.00000000       0.00000000
 MM_DIPOLE| Moment [Debye]          0.00000000       0.00000000       0.00000000
 MM_DIPOLE| Derivative [a.u.]       0.00000000       0.00000000       0.00000000

 ENERGY| Total FORCE_EVAL ( FIST ) energy [a.u.]:             -0.209741702169304

 MD_VEL| Centre of mass motion (COM)
 MD_VEL| VCOM [a.u.]              0.0000000000    -0.0000000000    -0.0000000000

 MD| ***************************************************************************
 MD| Step number                                                              14
 MD| Time [fs]                                                         70.000000
 MD| Conserved quantity [hartree]                            -0.163318222550E+00
 MD| ---------------------------------------------------------------------------
 MD|                                          Instantaneous             Averages
 MD| CPU time per MD step [s]                      0.024701             0.026787
 MD| Energy drift per atom [K]          -0.107570522005E-01  -0.876395563829E-02
 MD| Potential energy [hartree]         -0.209741702169E+00  -0.208844547360E+00
 MD| Kinetic energy [hartree]            0.464234796197E-01   0.455269635246E-01
 MD| Temperature [K]                              91.335563            89.571719
 MD| ***************************************************************************
 MD| Estimated peak process memory after this step [MiB]                     112

 MM_DIPOLE| Dipole type                                   periodic (Berry phase)
 MM_DIPOLE| Moment [a.u.]           0.00000000       0.00000000       0.00000000
 MM_DIPOLE| Moment [Debye]          0.00000000       0.00000000       0.00000000
 MM_DIPOLE| Derivative [a.u.]       0.00000000       0.00000000       0.00000000

 ENERGY| Total FORCE_EVAL ( FIST ) energy [a.u.]:             -0.209662000410021

 MD_VEL| Centre of mass motion (COM)
 MD_VEL| VCOM [a.u.]              0.0000000000    -0.0000000000    -0.0000000000

 MD| ***************************************************************************
 MD| Step number                                                              15
 MD| Time [fs]                                                         75.000000
 MD| Conserved quantity [hartree]                            -0.163317981288E+00
 MD| ---------------------------------------------------------------------------
 MD|                                          Instantaneous             Averages
 MD| CPU time per MD step [s]                      0.026266             0.026752
 MD| Energy drift per atom [K]          -0.100516407443E-01  -0.884980131202E-02
 MD| Potential energy [hartree]         -0.209662000410E+00  -0.208899044230E+00
 MD| Kinetic energy [hartree]            0.463440191224E-01   0.455814338978E-01
 MD| Temperature [K]                              91.179229            89.678886
 MD| ***************************************************************************
 MD| Estimated peak process memory after this step [MiB]                     112

 MM_DIPOLE| Dipole type                                   periodic (Berry phase)
 MM_DIPOLE| Moment [a.u.]           0.00000000       0.00000000       0.00000000
 MM_DIPOLE| Moment [Debye]          0.00000000       0.00000000       0.00000000
 MM_DIPOLE| Derivative [a.u.]       0.00000000       0.00000000       0.00000000

 ENERGY| Total FORCE_EVAL ( FIST ) energy [a.u.]:             -0.209546788256556

 MD_VEL| Centre of mass motion (COM)
 MD_VEL| VCOM [a.u.]              0.0000000000    -0.0000000000    -0.0000000000

 MD| ***************************************************************************
 MD| Step number                                                              16
 MD| Time [fs]                                                         80.000000
 MD| Conserved quantity [hartree]                            -0.163317830612E+00
 MD| ---------------------------------------------------------------------------
 MD|                                          Instantaneous             Averages
 MD| CPU time per MD step [s]                      0.025178             0.026654
 MD| Energy drift per atom [K]          -0.961108883990E-02  -0.889738178251E-02
 MD| Potential energy [hartree]         -0.209546788257E+00  -0.208939528232E+00
 MD| Kinetic energy [hartree]            0.462289576448E-01   0.456219041320E-01
 MD| Temperature [K]                              90.952852            89.758509
 MD| ***************************************************************************
 MD| Estimated peak process memory after this step [MiB]                     112

 MM_DIPOLE| Dipole type                                   periodic (Berry phase)
 MM_DIPOLE| Moment [a.u.]           0.00000000       0.00000000       0.00000000
 MM_DIPOLE| Moment [Debye]          0.00000000       0.00000000       0.00000000
 MM_DIPOLE| Derivative [a.u.]       0.00000000       0.00000000       0.00000000

 ENERGY| Total FORCE_EVAL ( FIST ) energy [a.u.]:             -0.209400378524308

 MD_VEL| Centre of mass motion (COM)
 MD_VEL| VCOM [a.u.]              0.0000000000    -0.0000000000    -0.0000000000

 MD| ***************************************************************************
 MD| Step number                                                              17
 MD| Time [fs]                                                         85.000000
 MD| Conserved quantity [hartree]                            -0.163317665296E+00
 MD| ---------------------------------------------------------------------------
 MD|                                          Instantaneous             Averages
 MD| CPU time per MD step [s]                      0.024770             0.026543
 MD| Energy drift per atom [K]          -0.912773351616E-02  -0.891093188449E-02
 MD| Potential energy [hartree]         -0.209400378524E+00  -0.208966637073E+00
 MD| Kinetic energy [hartree]            0.460827132278E-01   0.456490105494E-01
 MD| Temperature [K]                              90.665125            89.811839
 MD| ***************************************************************************
 MD| Estimated peak process memory after this step [MiB]                     112

 MM_DIPOLE| Dipole type                                   periodic (Berry phase)
 MM_DIPOLE| Moment [a.u.]           0.00000000       0.00000000       0.00000000
 MM_DIPOLE| Moment [Debye]          0.00000000       0.00000000       0.00000000
 MM_DIPOLE| Derivative [a.u.]       0.00000000       0.00000000       0.00000000

 ENERGY| Total FORCE_EVAL ( FIST ) energy [a.u.]:             -0.209227036662200

 MD_VEL| Centre of mass motion (COM)
 MD_VEL| VCOM [a.u.]              0.0000000000    -0.0000000000    -0.0000000000

 MD| ***************************************************************************
 MD| Step number                                                              18
 MD| Time [fs]                                                         90.000000
 MD| Conserved quantity [hartree]                            -0.163317385959E+00
 MD| ---------------------------------------------------------------------------
 MD|                                          Instantaneous             Averages
 MD| CPU time per MD step [s]                      0.024481             0.026428
 MD| Energy drift per atom [K]          -0.831099600582E-02  -0.887760211346E-02
 MD| Potential energy [hartree]         -0.209227036662E+00  -0.208981103716E+00
 MD| Kinetic energy [hartree]            0.459096507031E-01   0.456634905579E-01
 MD| Temperature [K]                              90.324634            89.840328
 MD| ***************************************************************************
 MD| Estimated peak process memory after this step [MiB]                     112

 MM_DIPOLE| Dipole type                                   periodic (Berry phase)
 MM_DIPOLE| Moment [a.u.]           0.00000000       0.00000000       0.00000000
 MM_DIPOLE| Moment [Debye]          0.00000000       0.00000000       0.00000000
 MM_DIPOLE| Derivative [a.u.]       0.00000000       0.00000000       0.00000000

 ENERGY| Total FORCE_EVAL ( FIST ) energy [a.u.]:             -0.209031392970790

 MD_VEL| Centre of mass motion (COM)
 MD_VEL| VCOM [a.u.]              0.0000000000    -0.0000000000    -0.0000000000

 MD| ***************************************************************************
 MD| Step number                                                              19
 MD| Time [fs]                                                         95.000000
 MD| Conserved quantity [hartree]                            -0.163317121225E+00
 MD| ---------------------------------------------------------------------------
 MD|                                          Instantaneous             Averages
 MD| CPU time per MD step [s]                      0.025441             0.026376
 MD| Energy drift per atom [K]          -0.753695668114E-02  -0.880704182754E-02
 MD| Potential energy [hartree]         -0.209031392971E+00  -0.208983750519E+00
 MD| Kinetic energy [hartree]            0.457142717455E-01   0.456661632520E-01
 MD| Temperature [K]                              89.940237            89.845586
 MD| ***************************************************************************
 MD| Estimated peak process memory after this step [MiB]                     112

 MM_DIPOLE| Dipole type                                   periodic (Berry phase)
 MM_DIPOLE| Moment [a.u.]           0.00000000       0.00000000       0.00000000
 MM_DIPOLE| Moment [Debye]          0.00000000       0.00000000       0.00000000
 MM_DIPOLE| Derivative [a.u.]       0.00000000       0.00000000       0.00000000

 ENERGY| Total FORCE_EVAL ( FIST ) energy [a.u.]:             -0.208818059261684

 MD_VEL| Centre of mass motion (COM)
 MD_VEL| VCOM [a.u.]              0.0000000000     0.0000000000    -0.0000000000

 MD| ***************************************************************************
 MD| Step number                                                              20
 MD| Time [fs]                                                        100.000000
 MD| Conserved quantity [hartree]                            -0.163316790629E+00
 MD| ---------------------------------------------------------------------------
 MD|                                          Instantaneous             Averages
 MD| CPU time per MD step [s]                      0.025043             0.026310
 MD| Energy drift per atom [K]          -0.657034554710E-02  -0.869520701352E-02
 MD| Potential energy [hartree]         -0.208818059262E+00  -0.208975465956E+00
 MD| Kinetic energy [hartree]            0.455012686330E-01   0.456579185211E-01
 MD| Temperature [K]                              89.521166            89.829365
 MD| ***************************************************************************
 MD| Estimated peak process memory after this step [MiB]                     112

 MM_DIPOLE| Dipole type                                   periodic (Berry phase)
 MM_DIPOLE| Moment [a.u.]           0.00000000       0.00000000       0.00000000
 MM_DIPOLE| Moment [Debye]          0.00000000       0.00000000       0.00000000
 MM_DIPOLE| Derivative [a.u.]       0.00000000       0.00000000       0.00000000

 ENERGY| Total FORCE_EVAL ( FIST ) energy [a.u.]:             -0.208592069634904

 MD_VEL| Centre of mass motion (COM)
 MD_VEL| VCOM [a.u.]              0.0000000000    -0.0000000000    -0.0000000000

 MD| ***************************************************************************
 MD| Step number                                                              21
 MD| Time [fs]                                                        105.000000
 MD| Conserved quantity [hartree]                            -0.163316447250E+00
 MD| ---------------------------------------------------------------------------
 MD|                                          Instantaneous             Averages
 MD| CPU time per MD step [s]                      0.035659             0.026755
 MD| Energy drift per atom [K]          -0.556636057433E-02  -0.854621432594E-02
 MD| Potential energy [hartree]         -0.208592069635E+00  -0.208957208989E+00
 MD| Kinetic energy [hartree]            0.452756223852E-01   0.456397139432E-01
 MD| Temperature [K]                              89.077219            89.793549
 MD| ***************************************************************************
 MD| Estimated peak process memory after this step [MiB]                     112

 MM_DIPOLE| Dipole type                                   periodic (Berry phase)
 MM_DIPOLE| Moment [a.u.]           0.00000000       0.00000000       0.00000000
 MM_DIPOLE| Moment [Debye]          0.00000000       0.00000000       0.00000000
 MM_DIPOLE| Derivative [a.u.]       0.00000000       0.00000000       0.00000000

 ENERGY| Total FORCE_EVAL ( FIST ) energy [a.u.]:             -0.208358829563452

 MD_VEL| Centre of mass motion (COM)
 MD_VEL| VCOM [a.u.]              0.0000000000    -0.0000000000    -0.0000000000

 MD| ***************************************************************************
 MD| Step number                                                              22
 MD| Time [fs]                                                        110.000000
 MD| Conserved quantity [hartree]                            -0.163316204704E+00
 MD| ---------------------------------------------------------------------------
 MD|                                          Instantaneous             Averages
 MD| CPU time per MD step [s]                      0.025919             0.026717
 MD| Energy drift per atom [K]          -0.485719671206E-02  -0.837853170713E-02
 MD| Potential energy [hartree]         -0.208358829563E+00  -0.208930009924E+00
 MD| Kinetic energy [hartree]            0.450426248591E-01   0.456125735303E-01
 MD| Temperature [K]                              88.618810            89.740152
 MD| ***************************************************************************
 MD| Estimated peak process memory after this step [MiB]                     112

 MM_DIPOLE| Dipole type                                   periodic (Berry phase)
 MM_DIPOLE| Moment [a.u.]           0.00000000       0.00000000       0.00000000
 MM_DIPOLE| Moment [Debye]          0.00000000       0.00000000       0.00000000
 MM_DIPOLE| Derivative [a.u.]       0.00000000       0.00000000       0.00000000

 ENERGY| Total FORCE_EVAL ( FIST ) energy [a.u.]:             -0.208123389801229

 MD_VEL| Centre of mass motion (COM)
 MD_VEL| VCOM [a.u.]              0.0000000000     0.0000000000    -0.0000000000

 MD| ***************************************************************************
 MD| Step number                                                              23
 MD| Time [fs]                                                        115.000000
 MD| Conserved quantity [hartree]                            -0.163315883086E+00
 MD| ---------------------------------------------------------------------------
 MD|                                          Instantaneous             Averages
 MD| CPU time per MD step [s]                      0.025322             0.026656
 MD| Energy drift per atom [K]          -0.391683676842E-02  -0.818454497066E-02
 MD| Potential energy [hartree]         -0.208123389801E+00  -0.208894939484E+00
 MD| Kinetic energy [hartree]            0.448075067151E-01   0.455775706252E-01
 MD| Temperature [K]                              88.156228            89.671285
 MD| ***************************************************************************
 MD| Estimated peak process memory after this step [MiB]                     112

 MM_DIPOLE| Dipole type                                   periodic (Berry phase)
 MM_DIPOLE| Moment [a.u.]           0.00000000       0.00000000       0.00000000
 MM_DIPOLE| Moment [Debye]          0.00000000       0.00000000       0.00000000
 MM_DIPOLE| Derivative [a.u.]       0.00000000       0.00000000       0.00000000

 ENERGY| Total FORCE_EVAL ( FIST ) energy [a.u.]:             -0.207891178777384

 MD_VEL| Centre of mass motion (COM)
 MD_VEL| VCOM [a.u.]              0.0000000000     0.0000000000    -0.0000000000

 MD| ***************************************************************************
 MD| Step number                                                              24
 MD| Time [fs]                                                        120.000000
 MD| Conserved quantity [hartree]                            -0.163315579028E+00
 MD| ---------------------------------------------------------------------------
 MD|                                          Instantaneous             Averages
 MD| CPU time per MD step [s]                      0.025059             0.026590
 MD| Energy drift per atom [K]          -0.302781843240E-02  -0.796968136490E-02
 MD| Potential energy [hartree]         -0.207891178777E+00  -0.208853116121E+00
 MD| Kinetic energy [hartree]            0.445755997498E-01   0.455358218388E-01
 MD| Temperature [K]                              87.699965            89.589147
 MD| ***************************************************************************
 MD| Estimated peak process memory after this step [MiB]                     112

 MM_DIPOLE| Dipole type                                   periodic (Berry phase)
 MM_DIPOLE| Moment [a.u.]           0.00000000       0.00000000       0.00000000
 MM_DIPOLE| Moment [Debye]          0.00000000       0.00000000       0.00000000
 MM_DIPOLE| Derivative [a.u.]       0.00000000       0.00000000       0.00000000

 ENERGY| Total FORCE_EVAL ( FIST ) energy [a.u.]:             -0.207667509601586

 MD_VEL| Centre of mass motion (COM)
 MD_VEL| VCOM [a.u.]              0.0000000000     0.0000000000    -0.0000000000

 MD| ***************************************************************************
 MD| Step number                                                              25
 MD| Time [fs]                                                        125.000000
 MD| Conserved quantity [hartree]                            -0.163315326078E+00
 MD| ---------------------------------------------------------------------------
 MD|                                          Instantaneous             Averages
 MD| CPU time per MD step [s]                      0.025929             0.026563
 MD| Energy drift per atom [K]          -0.228823338160E-02  -0.774242344557E-02
 MD| Potential energy [hartree]         -0.207667509602E+00  -0.208805691860E+00
 MD| Kinetic energy [hartree]            0.443521835240E-01   0.454884763062E-01
 MD| Temperature [K]                              87.260406            89.495997
 MD| ***************************************************************************
 MD| Estimated peak process memory after this step [MiB]                     112

 MM_DIPOLE| Dipole type                                   periodic (Berry phase)
 MM_DIPOLE| Moment [a.u.]           0.00000000       0.00000000       0.00000000
 MM_DIPOLE| Moment [Debye]          0.00000000       0.00000000       0.00000000
 MM_DIPOLE| Derivative [a.u.]       0.00000000       0.00000000       0.00000000

 ENERGY| Total FORCE_EVAL ( FIST ) energy [a.u.]:             -0.207457360213817

 MD_VEL| Centre of mass motion (COM)
 MD_VEL| VCOM [a.u.]              0.0000000000    -0.0000000000    -0.0000000000

 MD| ***************************************************************************
 MD| Step number                                                              26
 MD| Time [fs]                                                        130.000000
 MD| Conserved quantity [hartree]                            -0.163315014394E+00
 MD| ---------------------------------------------------------------------------
 MD|                                          Instantaneous             Averages
 MD| CPU time per MD step [s]                      0.025805             0.026534
 MD| Energy drift per atom [K]          -0.137692055004E-02  -0.749759641113E-02
 MD| Potential energy [hartree]         -0.207457360214E+00  -0.208753832951E+00
 MD| Kinetic energy [hartree]            0.441423458198E-01   0.454367020567E-01
 MD| Temperature [K]                              86.847562            89.394135
 MD| ***************************************************************************
 MD| Estimated peak process memory after this step [MiB]                     112

 MM_DIPOLE| Dipole type                                   periodic (Berry phase)
 MM_DIPOLE| Moment [a.u.]           0.00000000       0.00000000       0.00000000
 MM_DIPOLE| Moment [Debye]          0.00000000       0.00000000       0.00000000
 MM_DIPOLE| Derivative [a.u.]       0.00000000       0.00000000       0.00000000

 ENERGY| Total FORCE_EVAL ( FIST ) energy [a.u.]:             -0.207265483289413

 MD_VEL| Centre of mass motion (COM)
 MD_VEL| VCOM [a.u.]              0.0000000000     0.0000000000    -0.0000000000

 MD| ***************************************************************************
 MD| Step number                                                              27
 MD| Time [fs]                                                        135.000000
 MD| Conserved quantity [hartree]                            -0.163314790842E+00
 MD| ---------------------------------------------------------------------------
 MD|                                          Instantaneous             Averages
 MD| CPU time per MD step [s]                      0.025569             0.026498
 MD| Energy drift per atom [K]          -0.723290451258E-03  -0.724669619039E-02
 MD| Potential energy [hartree]         -0.207265483289E+00  -0.208698708889E+00
 MD| Kinetic energy [hartree]            0.439506924474E-01   0.453816646638E-01
 MD| Temperature [K]                              86.470495            89.285852
 MD| ***************************************************************************
 MD| Estimated peak process memory after this step [MiB]                     112

 MM_DIPOLE| Dipole type                                   periodic (Berry phase)
 MM_DIPOLE| Moment [a.u.]           0.00000000       0.00000000       0.00000000
 MM_DIPOLE| Moment [Debye]          0.00000000       0.00000000       0.00000000
 MM_DIPOLE| Derivative [a.u.]       0.00000000       0.00000000       0.00000000

 ENERGY| Total FORCE_EVAL ( FIST ) energy [a.u.]:             -0.207095878546300

 MD_VEL| Centre of mass motion (COM)
 MD_VEL| VCOM [a.u.]              0.0000000000     0.0000000000    -0.0000000000

 MD| ***************************************************************************
 MD| Step number                                                              28
 MD| Time [fs]                                                        140.000000
 MD| Conserved quantity [hartree]                            -0.163314675018E+00
 MD| ---------------------------------------------------------------------------
 MD|                                          Instantaneous             Averages
 MD| CPU time per MD step [s]                      0.024334             0.026421
 MD| Energy drift per atom [K]          -0.384639248134E-03  -0.700162272817E-02
 MD| Potential energy [hartree]         -0.207095878546E+00  -0.208641464948E+00
 MD| Kinetic energy [hartree]            0.437812035285E-01   0.453245053375E-01
 MD| Temperature [K]                              86.137035            89.173394
 MD| ***************************************************************************
 MD| Estimated peak process memory after this step [MiB]                     112

 MM_DIPOLE| Dipole type                                   periodic (Berry phase)
 MM_DIPOLE| Moment [a.u.]           0.00000000       0.00000000       0.00000000
 MM_DIPOLE| Moment [Debye]          0.00000000       0.00000000       0.00000000
 MM_DIPOLE| Derivative [a.u.]       0.00000000       0.00000000       0.00000000

 ENERGY| Total FORCE_EVAL ( FIST ) energy [a.u.]:             -0.206951658852696

 MD_VEL| Centre of mass motion (COM)
 MD_VEL| VCOM [a.u.]             -0.0000000000     0.0000000000    -0.0000000000

 MD| ***************************************************************************
 MD| Step number                                                              29
 MD| Time [fs]                                                        145.000000
 MD| Conserved quantity [hartree]                            -0.163314590226E+00
 MD| ---------------------------------------------------------------------------
 MD|                                          Instantaneous             Averages
 MD| CPU time per MD step [s]                      0.025901             0.026403
 MD| Energy drift per atom [K]          -0.136722393864E-03  -0.676490202698E-02
 MD| Potential energy [hartree]         -0.206951658853E+00  -0.208583195773E+00
 MD| Kinetic energy [hartree]            0.436370686264E-01   0.452663178647E-01
 MD| Temperature [K]                              85.853458            89.058913
 MD| ***************************************************************************
 MD| Estimated peak process memory after this step [MiB]                     112

 MM_DIPOLE| Dipole type                                   periodic (Berry phase)
 MM_DIPOLE| Moment [a.u.]           0.00000000       0.00000000       0.00000000
 MM_DIPOLE| Moment [Debye]          0.00000000       0.00000000       0.00000000
 MM_DIPOLE| Derivative [a.u.]       0.00000000       0.00000000       0.00000000

 ENERGY| Total FORCE_EVAL ( FIST ) energy [a.u.]:             -0.206835012863463

 MD_VEL| Centre of mass motion (COM)
 MD_VEL| VCOM [a.u.]              0.0000000000     0.0000000000    -0.0000000000

 MD| ***************************************************************************
 MD| Step number                                                              30
 MD| Time [fs]                                                        150.000000
 MD| Conserved quantity [hartree]                            -0.163314474269E+00
 MD| ---------------------------------------------------------------------------
 MD|                                          Instantaneous             Averages
 MD| CPU time per MD step [s]                      0.024455             0.026338
 MD| Energy drift per atom [K]           0.202317323061E-03  -0.653266138198E-02
 MD| Potential energy [hartree]         -0.206835012863E+00  -0.208524923009E+00
 MD| Kinetic energy [hartree]            0.435205385942E-01   0.452081252224E-01
 MD| Temperature [K]                              85.624192            88.944423
 MD| ***************************************************************************
 MD| Estimated peak process memory after this step [MiB]                     112

 MM_DIPOLE| Dipole type                                   periodic (Berry phase)
 MM_DIPOLE| Moment [a.u.]           0.00000000       0.00000000       0.00000000
 MM_DIPOLE| Moment [Debye]          0.00000000       0.00000000       0.00000000
 MM_DIPOLE| Derivative [a.u.]       0.00000000       0.00000000       0.00000000

 ENERGY| Total FORCE_EVAL ( FIST ) energy [a.u.]:             -0.206747349136935

 MD_VEL| Centre of mass motion (COM)
 MD_VEL| VCOM [a.u.]              0.0000000000     0.0000000000    -0.0000000000

 MD| ***************************************************************************
 MD| Step number                                                              31
 MD| Time [fs]                                                        155.000000
 MD| Conserved quantity [hartree]                            -0.163314438968E+00
 MD| ---------------------------------------------------------------------------
 MD|                                          Instantaneous             Averages
 MD| CPU time per MD step [s]                      0.025478             0.026311
 MD| Energy drift per atom [K]           0.305533316707E-03  -0.631207445622E-02
 MD| Potential energy [hartree]         -0.206747349137E+00  -0.208467581916E+00
 MD| Kinetic energy [hartree]            0.434329101692E-01   0.451508602206E-01
 MD| Temperature [K]                              85.451788            88.831757
 MD| ***************************************************************************
 MD| Estimated peak process memory after this step [MiB]                     112

 MM_DIPOLE| Dipole type                                   periodic (Berry phase)
 MM_DIPOLE| Moment [a.u.]           0.00000000       0.00000000       0.00000000
 MM_DIPOLE| Moment [Debye]          0.00000000       0.00000000       0.00000000
 MM_DIPOLE| Derivative [a.u.]       0.00000000       0.00000000       0.00000000

 ENERGY| Total FORCE_EVAL ( FIST ) energy [a.u.]:             -0.206689080103742

 MD_VEL| Centre of mass motion (COM)
 MD_VEL| VCOM [a.u.]             -0.0000000000     0.0000000000    -0.0000000000

 MD| ***************************************************************************
 MD| Step number                                                              32
 MD| Time [fs]                                                        160.000000
 MD| Conserved quantity [hartree]                            -0.163314517593E+00
 MD| ---------------------------------------------------------------------------
 MD|                                          Instantaneous             Averages
 MD| CPU time per MD step [s]                      0.024711             0.026261
 MD| Energy drift per atom [K]           0.756460482678E-04  -0.611245819045E-02
 MD| Potential energy [hartree]         -0.206689080104E+00  -0.208412003735E+00
 MD| Kinetic energy [hartree]            0.433745625109E-01   0.450953509172E-01
 MD| Temperature [K]                              85.336992            88.722546
 MD| ***************************************************************************
 MD| Estimated peak process memory after this step [MiB]                     112

 MM_DIPOLE| Dipole type                                   periodic (Berry phase)
 MM_DIPOLE| Moment [a.u.]           0.00000000       0.00000000       0.00000000
 MM_DIPOLE| Moment [Debye]          0.00000000       0.00000000       0.00000000
 MM_DIPOLE| Derivative [a.u.]       0.00000000       0.00000000       0.00000000

 ENERGY| Total FORCE_EVAL ( FIST ) energy [a.u.]:             -0.206659903774722

 MD_VEL| Centre of mass motion (COM)
 MD_VEL| VCOM [a.u.]              0.0000000000     0.0000000000    -0.0000000000

 MD| ***************************************************************************
 MD| Step number                                                              33
 MD| Time [fs]                                                        165.000000
 MD| Conserved quantity [hartree]                            -0.163314743305E+00
 MD| ---------------------------------------------------------------------------
 MD|                                          Instantaneous             Averages
 MD| CPU time per MD step [s]                      0.025789             0.026246
 MD| Energy drift per atom [K]          -0.584300900463E-03  -0.594493827258E-02
 MD| Potential energy [hartree]         -0.206659903775E+00  -0.208358909797E+00
 MD| Kinetic energy [hartree]            0.433451604694E-01   0.450423148430E-01
 MD| Temperature [K]                              85.279145            88.618200
 MD| ***************************************************************************
 MD| Estimated peak process memory after this step [MiB]                     112

 MM_DIPOLE| Dipole type                                   periodic (Berry phase)
 MM_DIPOLE| Moment [a.u.]           0.00000000       0.00000000       0.00000000
 MM_DIPOLE| Moment [Debye]          0.00000000       0.00000000       0.00000000
 MM_DIPOLE| Derivative [a.u.]       0.00000000       0.00000000       0.00000000

 ENERGY| Total FORCE_EVAL ( FIST ) energy [a.u.]:             -0.206658302556855

 MD_VEL| Centre of mass motion (COM)
 MD_VEL| VCOM [a.u.]             -0.0000000000    -0.0000000000    -0.0000000000

 MD| ***************************************************************************
 MD| Step number                                                              34
 MD| Time [fs]                                                        170.000000
 MD| Conserved quantity [hartree]                            -0.163314933370E+00
 MD| ---------------------------------------------------------------------------
 MD|                                          Instantaneous             Averages
 MD| CPU time per MD step [s]                      0.024304             0.026189
 MD| Energy drift per atom [K]          -0.114001993152E-02  -0.580361714490E-02
 MD| Potential energy [hartree]         -0.206658302557E+00  -0.208308891937E+00
 MD| Kinetic energy [hartree]            0.433433691867E-01   0.449923458531E-01
 MD| Temperature [K]                              85.275621            88.519889
 MD| ***************************************************************************
 MD| Estimated peak process memory after this step [MiB]                     112

 MM_DIPOLE| Dipole type                                   periodic (Berry phase)
 MM_DIPOLE| Moment [a.u.]           0.00000000       0.00000000       0.00000000
 MM_DIPOLE| Moment [Debye]          0.00000000       0.00000000       0.00000000
 MM_DIPOLE| Derivative [a.u.]       0.00000000       0.00000000       0.00000000

 ENERGY| Total FORCE_EVAL ( FIST ) energy [a.u.]:             -0.206682120206162

 MD_VEL| Centre of mass motion (COM)
 MD_VEL| VCOM [a.u.]             -0.0000000000     0.0000000000    -0.0000000000

 MD| ***************************************************************************
 MD| Step number                                                              35
 MD| Time [fs]                                                        175.000000
 MD| Conserved quantity [hartree]                            -0.163315159390E+00
 MD| ---------------------------------------------------------------------------
 MD|                                          Instantaneous             Averages
 MD| CPU time per MD step [s]                      0.026190             0.026189
 MD| Energy drift per atom [K]          -0.180086453296E-02  -0.568925278456E-02
 MD| Potential energy [hartree]         -0.206682120206E+00  -0.208262412744E+00
 MD| Kinetic energy [hartree]            0.433669608165E-01   0.449459062807E-01
 MD| Temperature [K]                              85.322036            88.428522
 MD| ***************************************************************************
 MD| Estimated peak process memory after this step [MiB]                     112

 MM_DIPOLE| Dipole type                                   periodic (Berry phase)
 MM_DIPOLE| Moment [a.u.]           0.00000000       0.00000000       0.00000000
 MM_DIPOLE| Moment [Debye]          0.00000000       0.00000000       0.00000000
 MM_DIPOLE| Derivative [a.u.]       0.00000000       0.00000000       0.00000000

 ENERGY| Total FORCE_EVAL ( FIST ) energy [a.u.]:             -0.206728178622290

 MD_VEL| Centre of mass motion (COM)
 MD_VEL| VCOM [a.u.]             -0.0000000000     0.0000000000    -0.0000000000

 MD| ***************************************************************************
 MD| Step number                                                              36
 MD| Time [fs]                                                        180.000000
 MD| Conserved quantity [hartree]                            -0.163315375049E+00
[...]
 MM_DIPOLE| Derivative [a.u.]       0.00000000       0.00000000       0.00000000

 ENERGY| Total FORCE_EVAL ( FIST ) energy [a.u.]:             -0.210608103040677

 MD_VEL| Centre of mass motion (COM)
 MD_VEL| VCOM [a.u.]              0.0000000000    -0.0000000000    -0.0000000000

 MD| ***************************************************************************
 MD| Step number                                                              92
 MD| Time [fs]                                                        460.000000
 MD| Conserved quantity [hartree]                            -0.163314902097E+00
 MD| ---------------------------------------------------------------------------
 MD|                                          Instantaneous             Averages
 MD| CPU time per MD step [s]                      0.025355             0.025883
 MD| Energy drift per atom [K]          -0.104858362956E-02  -0.617341800506E-02
 MD| Potential energy [hartree]         -0.210608103041E+00  -0.208837915530E+00
 MD| Kinetic energy [hartree]            0.472932009432E-01   0.455212541204E-01
 MD| Temperature [K]                              93.046691            89.560486
 MD| ***************************************************************************
 MD| Estimated peak process memory after this step [MiB]                     112

 MM_DIPOLE| Dipole type                                   periodic (Berry phase)
 MM_DIPOLE| Moment [a.u.]           0.00000000       0.00000000       0.00000000
 MM_DIPOLE| Moment [Debye]          0.00000000       0.00000000       0.00000000
 MM_DIPOLE| Derivative [a.u.]       0.00000000       0.00000000       0.00000000

 ENERGY| Total FORCE_EVAL ( FIST ) energy [a.u.]:             -0.210642480627027

 MD_VEL| Centre of mass motion (COM)
 MD_VEL| VCOM [a.u.]              0.0000000000    -0.0000000000    -0.0000000000

 MD| ***************************************************************************
 MD| Step number                                                              93
 MD| Time [fs]                                                        465.000000
 MD| Conserved quantity [hartree]                            -0.163314999129E+00
 MD| ---------------------------------------------------------------------------
 MD|                                          Instantaneous             Averages
 MD| CPU time per MD step [s]                      0.025195             0.025876
 MD| Energy drift per atom [K]          -0.133228890883E-02  -0.612136285349E-02
 MD| Potential energy [hartree]         -0.210642480627E+00  -0.208857319456E+00
 MD| Kinetic energy [hartree]            0.473274814978E-01   0.455406759201E-01
 MD| Temperature [K]                              93.114136            89.598697
 MD| ***************************************************************************
 MD| Estimated peak process memory after this step [MiB]                     112

 MM_DIPOLE| Dipole type                                   periodic (Berry phase)
 MM_DIPOLE| Moment [a.u.]           0.00000000       0.00000000       0.00000000
 MM_DIPOLE| Moment [Debye]          0.00000000       0.00000000       0.00000000
 MM_DIPOLE| Derivative [a.u.]       0.00000000       0.00000000       0.00000000

 ENERGY| Total FORCE_EVAL ( FIST ) energy [a.u.]:             -0.210697415766291

 MD_VEL| Centre of mass motion (COM)
 MD_VEL| VCOM [a.u.]              0.0000000000    -0.0000000000     0.0000000000

 MD| ***************************************************************************
 MD| Step number                                                              94
 MD| Time [fs]                                                        470.000000
 MD| Conserved quantity [hartree]                            -0.163315226654E+00
 MD| ---------------------------------------------------------------------------
 MD|                                          Instantaneous             Averages
 MD| CPU time per MD step [s]                      0.024351             0.025859
 MD| Energy drift per atom [K]          -0.199753423713E-02  -0.607749233629E-02
 MD| Potential energy [hartree]         -0.210697415766E+00  -0.208876894949E+00
 MD| Kinetic energy [hartree]            0.473821891125E-01   0.455602664860E-01
 MD| Temperature [K]                              93.221770            89.637241
 MD| ***************************************************************************
 MD| Estimated peak process memory after this step [MiB]                     112

 MM_DIPOLE| Dipole type                                   periodic (Berry phase)
 MM_DIPOLE| Moment [a.u.]           0.00000000       0.00000000       0.00000000
 MM_DIPOLE| Moment [Debye]          0.00000000       0.00000000       0.00000000
 MM_DIPOLE| Derivative [a.u.]       0.00000000       0.00000000       0.00000000

 ENERGY| Total FORCE_EVAL ( FIST ) energy [a.u.]:             -0.210769615720202

 MD_VEL| Centre of mass motion (COM)
 MD_VEL| VCOM [a.u.]              0.0000000000    -0.0000000000    -0.0000000000

 MD| ***************************************************************************
 MD| Step number                                                              95
 MD| Time [fs]                                                        475.000000
 MD| Conserved quantity [hartree]                            -0.163315508312E+00
 MD| ---------------------------------------------------------------------------
 MD|                                          Instantaneous             Averages
 MD| CPU time per MD step [s]                      0.025643             0.025857
 MD| Energy drift per atom [K]          -0.282105810939E-02  -0.604321408127E-02
 MD| Potential energy [hartree]         -0.210769615720E+00  -0.208896818325E+00
 MD| Kinetic energy [hartree]            0.474541074080E-01   0.455802016536E-01
 MD| Temperature [K]                              93.363265            89.676462
 MD| ***************************************************************************
 MD| Estimated peak process memory after this step [MiB]                     112

 MM_DIPOLE| Dipole type                                   periodic (Berry phase)
 MM_DIPOLE| Moment [a.u.]           0.00000000       0.00000000       0.00000000
 MM_DIPOLE| Moment [Debye]          0.00000000       0.00000000       0.00000000
 MM_DIPOLE| Derivative [a.u.]       0.00000000       0.00000000       0.00000000

 ENERGY| Total FORCE_EVAL ( FIST ) energy [a.u.]:             -0.210854954222841

 MD_VEL| Centre of mass motion (COM)
 MD_VEL| VCOM [a.u.]              0.0000000000    -0.0000000000    -0.0000000000

 MD| ***************************************************************************
 MD| Step number                                                              96
 MD| Time [fs]                                                        480.000000
 MD| Conserved quantity [hartree]                            -0.163315777572E+00
 MD| ---------------------------------------------------------------------------
 MD|                                          Instantaneous             Averages
 MD| CPU time per MD step [s]                      0.024548             0.025843
 MD| Energy drift per atom [K]          -0.360832922312E-02  -0.601785069733E-02
 MD| Potential energy [hartree]         -0.210854954223E+00  -0.208917215574E+00
 MD| Kinetic energy [hartree]            0.475391766513E-01   0.456006076431E-01
 MD| Temperature [K]                              93.530634            89.716609
 MD| ***************************************************************************
 MD| Estimated peak process memory after this step [MiB]                     112

 MM_DIPOLE| Dipole type                                   periodic (Berry phase)
 MM_DIPOLE| Moment [a.u.]           0.00000000       0.00000000       0.00000000
 MM_DIPOLE| Moment [Debye]          0.00000000       0.00000000       0.00000000
 MM_DIPOLE| Derivative [a.u.]       0.00000000       0.00000000       0.00000000

 ENERGY| Total FORCE_EVAL ( FIST ) energy [a.u.]:             -0.210948999571643

 MD_VEL| Centre of mass motion (COM)
 MD_VEL| VCOM [a.u.]              0.0000000000    -0.0000000000    -0.0000000000

 MD| ***************************************************************************
 MD| Step number                                                              97
 MD| Time [fs]                                                        485.000000
 MD| Conserved quantity [hartree]                            -0.163316123672E+00
 MD| ---------------------------------------------------------------------------
 MD|                                          Instantaneous             Averages
 MD| CPU time per MD step [s]                      0.024895             0.025834
 MD| Energy drift per atom [K]          -0.462027185044E-02  -0.600344266798E-02
 MD| Potential energy [hartree]         -0.210948999572E+00  -0.208938161801E+00
 MD| Kinetic energy [hartree]            0.476328758994E-01   0.456215588623E-01
 MD| Temperature [K]                              93.714982            89.757830
 MD| ***************************************************************************
 MD| Estimated peak process memory after this step [MiB]                     112

 MM_DIPOLE| Dipole type                                   periodic (Berry phase)
 MM_DIPOLE| Moment [a.u.]           0.00000000       0.00000000       0.00000000
 MM_DIPOLE| Moment [Debye]          0.00000000       0.00000000       0.00000000
 MM_DIPOLE| Derivative [a.u.]       0.00000000       0.00000000       0.00000000

 ENERGY| Total FORCE_EVAL ( FIST ) energy [a.u.]:             -0.211046288710652

 MD_VEL| Centre of mass motion (COM)
 MD_VEL| VCOM [a.u.]              0.0000000000    -0.0000000000    -0.0000000000

 MD| ***************************************************************************
 MD| Step number                                                              98
 MD| Time [fs]                                                        490.000000
 MD| Conserved quantity [hartree]                            -0.163316409301E+00
 MD| ---------------------------------------------------------------------------
 MD|                                          Instantaneous             Averages
 MD| CPU time per MD step [s]                      0.024990             0.025825
 MD| Energy drift per atom [K]          -0.545540567866E-02  -0.599785045381E-02
 MD| Potential energy [hartree]         -0.211046288711E+00  -0.208959673300E+00
 MD| Kinetic energy [hartree]            0.477298794093E-01   0.456430723373E-01
 MD| Temperature [K]                              93.905831            89.800156
 MD| ***************************************************************************
 MD| Estimated peak process memory after this step [MiB]                     112

 MM_DIPOLE| Dipole type                                   periodic (Berry phase)
 MM_DIPOLE| Moment [a.u.]           0.00000000       0.00000000       0.00000000
 MM_DIPOLE| Moment [Debye]          0.00000000       0.00000000       0.00000000
 MM_DIPOLE| Derivative [a.u.]       0.00000000       0.00000000       0.00000000

 ENERGY| Total FORCE_EVAL ( FIST ) energy [a.u.]:             -0.211141556893154

 MD_VEL| Centre of mass motion (COM)
 MD_VEL| VCOM [a.u.]              0.0000000000    -0.0000000000    -0.0000000000

 MD| ***************************************************************************
 MD| Step number                                                              99
 MD| Time [fs]                                                        495.000000
 MD| Conserved quantity [hartree]                            -0.163316729949E+00
 MD| ---------------------------------------------------------------------------
 MD|                                          Instantaneous             Averages
 MD| CPU time per MD step [s]                      0.025111             0.025818
 MD| Energy drift per atom [K]          -0.639292882094E-02  -0.600184114438E-02
 MD| Potential energy [hartree]         -0.211141556893E+00  -0.208981712528E+00
 MD| Kinetic energy [hartree]            0.478248269438E-01   0.456651102626E-01
 MD| Temperature [K]                              94.092635            89.843515
 MD| ***************************************************************************
 MD| Estimated peak process memory after this step [MiB]                     112

 MM_DIPOLE| Dipole type                                   periodic (Berry phase)
 MM_DIPOLE| Moment [a.u.]           0.00000000       0.00000000       0.00000000
 MM_DIPOLE| Moment [Debye]          0.00000000       0.00000000       0.00000000
 MM_DIPOLE| Derivative [a.u.]       0.00000000       0.00000000       0.00000000

 ENERGY| Total FORCE_EVAL ( FIST ) energy [a.u.]:             -0.211229963864251

 MD_VEL| Centre of mass motion (COM)
 MD_VEL| VCOM [a.u.]              0.0000000000    -0.0000000000    -0.0000000000

 MD| ***************************************************************************
 MD| Step number                                                             100
 MD| Time [fs]                                                        500.000000
 MD| Conserved quantity [hartree]                            -0.163317038305E+00
 MD| ---------------------------------------------------------------------------
 MD|                                          Instantaneous             Averages
 MD| CPU time per MD step [s]                      0.025240             0.025812
 MD| Energy drift per atom [K]          -0.729451232441E-02  -0.601476785618E-02
 MD| Potential energy [hartree]         -0.211229963864E+00  -0.209004195042E+00
 MD| Kinetic energy [hartree]            0.479129255589E-01   0.456875884155E-01
 MD| Temperature [K]                              94.265964            89.887739
 MD| ***************************************************************************
 MD| Estimated peak process memory after this step [MiB]                     112

 -------------------------------------------------------------------------------
 -                                                                             -
 -                                DBCSR STATISTICS                             -
 -                                                                             -
 -------------------------------------------------------------------------------
 COUNTER                                    TOTAL       BLAS       SMM       ACC
 flops inhomo. stacks                           0       0.0%      0.0%      0.0%
 flops total                         0.000000E+00       0.0%      0.0%      0.0%
 flops max/rank                      0.000000E+00       0.0%      0.0%      0.0%
 matmuls inhomo. stacks                         0       0.0%      0.0%      0.0%
 matmuls total                                  0       0.0%      0.0%      0.0%
 number of processed stacks                     0       0.0%      0.0%      0.0%
 average stack size                                     0.0       0.0       0.0
 marketing flops                     0.000000E+00
 -------------------------------------------------------------------------------

 -------------------------------------------------------------------------------
 -                                                                             -
 -                                DBM STATISTICS                               -
 -                                                                             -
 -------------------------------------------------------------------------------
    M  x    N  x    K                                          COUNT     PERCENT
 -------------------------------------------------------------------------------

 -------------------------------------------------------------------------------
 -                                                                             -
 -                                GRID STATISTICS                              -
 -                                                                             -
 -------------------------------------------------------------------------------
 LP    KERNEL             BACKEND                              COUNT     PERCENT
 -------------------------------------------------------------------------------

 MEMORY| Estimated peak process memory [MiB]                                 112

 -------------------------------------------------------------------------------
 -                                                                             -
 -                           R E F E R E N C E S                               -
 -                                                                             -
 -------------------------------------------------------------------------------
 
 CP2K version 2022.1, the CP2K developers group (2022).
 CP2K is freely available from https://www.cp2k.org/ .

 Schuett, Ole; Messmer, Peter; Hutter, Juerg; VandeVondele, Joost. 
 Electronic Structure Calculations on Graphics Processing Units, John
 Wiley & Sons, Ltd, 173-190 (2016). 
 GPU-Accelerated Sparse Matrix-Matrix Multiplication for
 Linear Scaling Density Functional Theory.
 https://doi.org/10.1002/9781118670712.ch8

 Heinecke, A; Henry, G; Hutchinson, M; Pabst, H. 
 Proceedings of Intl. Supercomputing Conference, 981-991 (2016). 
 LIBXSMM: Accelerating Small Matrix Multiplications
 by Runtime Code Generation.
 https://doi.org/10.1109/SC.2016.83

 Borstnik, U; VandeVondele, J; Weber, V; Hutter, J. 
 PARALLEL COMPUTING, 40 (5-6), 47-58 (2014). 
 Sparse matrix multiplication: The distributed block-compressed sparse
 row library.
 https://doi.org/10.1016/j.parco.2014.03.012

 Hutter, J; Iannuzzi, M; Schiffmann, F; VandeVondele, J. 
 WIREs Comput Mol Sci., 4 (1), 15-25 (2014). 
 CP2K: atomistic simulations of condensed matter systems.
 https://doi.org/10.1002/wcms.1159

 Frigo, M; Johnson, SG. 
 PROCEEDINGS OF THE IEEE, 93 (2), 216-231 (2005). 
 The design and implementation of FFTW3.
 https://doi.org/10.1109/JPROC.2004.840301


 -------------------------------------------------------------------------------
 -                                                                             -
 -                                T I M I N G                                  -
 -                                                                             -
 -------------------------------------------------------------------------------
 SUBROUTINE                       CALLS  ASD         SELF TIME        TOTAL TIME
                                MAXIMUM       AVERAGE  MAXIMUM  AVERAGE  MAXIMUM
 CP2K                                 1  1.0    0.032    0.032    2.652    2.652
 qs_mol_dyn_low                       1  2.0    0.013    0.013    2.610    2.610
 velocity_verlet                    100  3.0    0.402    0.402    1.511    1.511
 fist_calc_energy_force             101  4.0    0.022    0.022    1.116    1.116
 force_nonbond                      101  5.0    1.084    1.084    1.084    1.084
 md_output                          100  3.0    0.000    0.000    1.052    1.052
 md_write_output                    101  4.0    0.743    0.743    1.021    1.021
 write_trajectory                   404  5.0    0.071    0.071    0.276    0.276
 write_particle_coordinates         101  6.0    0.206    0.206    0.206    0.206
 -------------------------------------------------------------------------------

 The number of warnings for this run is : 0
 
 -------------------------------------------------------------------------------
  **** **** ******  **  PROGRAM ENDED AT                 2023-01-25 03:28:54.144
 ***** ** ***  *** **   PROGRAM RAN ON                                  Tha-DELL
 **    ****   ******    PROGRAM RAN BY                                     thang
 ***** **    ** ** **   PROGRAM PROCESS ID                                  1514
  **** **  *******  **  PROGRAM STOPPED IN  /cygdrive/c/DATA/work/w23_CP2K/MD_LJ
