
  ___ ___ ___ _ _ _  
 |   |   |_  | | | | 
 | | | | | . | | | | 
 |__ |  _|___|_____|  22.8.1b1
 |___|_|             

User:   tha@20175329-p01
Date:   Thu Jan 26 18:02:07 2023
Arch:   x86_64
Pid:    7438
CWD:    /mnt/d/work/w23_DFT/ASE_kitchin_book
Python: 3.10.8
gpaw:   /home/tha/app/miniconda3/envs/py310ase/lib/python3.10/site-packages/gpaw
_gpaw:  /home/tha/app/miniconda3/envs/py310ase/lib/python3.10/site-packages/
        _gpaw.cpython-310-x86_64-linux-gnu.so (91fd06ccd7)
ase:    /home/tha/app/miniconda3/envs/py310ase/lib/python3.10/site-packages/ase (version 3.23.0b1)
numpy:  /home/tha/app/miniconda3/envs/py310ase/lib/python3.10/site-packages/numpy (version 1.24.1)
scipy:  /home/tha/app/miniconda3/envs/py310ase/lib/python3.10/site-packages/scipy (version 1.10.0)
libxc:  5.2.3
units:  Angstrom and eV
cores: 1
OpenMP: False
OMP_NUM_THREADS: 1

Input parameters:
  mode: {ecut: 350.0,
         name: pw}
  nbands: 6
  occupations: {name: methfessel-paxton,
                order: 0,
                width: 0.01}
  xc: PBE

System changes: positions, numbers, cell, pbc, initial_charges, initial_magmoms 

Initialize ...

species:
  C:
    name: Carbon
    id: 4aa54d4b901d75f77cc0ea3eec22967b
    Z: 6.0
    valence: 4
    core: 2
    charge: 0.0
    file: /home/tha/PAWDATA/gpaw-setups-0.9.20000/C.PBE.gz
    compensation charges: {type: gauss,
                           rc: 0.20,
                           lmax: 2}
    cutoffs: {filter: 1.14,
              core: 1.14}
    valence states:
      #              energy  rcut
      - 2s(2.00)   -13.751   0.635
      - 2p(2.00)    -5.284   0.635
      -  s          13.461   0.635
      -  p          21.927   0.635
      -  d           0.000   0.635
  
    # Using partial waves for C as LCAO basis

  O:
    name: Oxygen
    id: 32ecd46bf208036f09c70b0ec9a88b78
    Z: 8.0
    valence: 6
    core: 2
    charge: 0.0
    file: /home/tha/PAWDATA/gpaw-setups-0.9.20000/O.PBE.gz
    compensation charges: {type: gauss,
                           rc: 0.21,
                           lmax: 2}
    cutoffs: {filter: 1.17,
              core: 0.83}
    valence states:
      #              energy  rcut
      - 2s(2.00)   -23.961   0.688
      - 2p(4.00)    -9.029   0.598
      -  s           3.251   0.688
      -  p          18.182   0.598
      -  d           0.000   0.619
  
    # Using partial waves for O as LCAO basis

Reference energy: -3068.480417  # eV

Spin-paired calculation

Convergence criteria:
 Maximum [total energy] change in last 3 cyles: 0.0005 eV / valence electron
 Maximum integral of absolute [dens]ity change: 0.0001 electrons / valence electron
 Maximum integral of absolute [eigenst]ate change: 4e-08 eV^2 / valence electron
 Maximum number of scf [iter]ations: 333
 (Square brackets indicate name in SCF output, whereas a 'c' in
 the SCF output indicates the quantity has converged.)

Symmetries present (total): 8

  ( 1  0  0)  ( 1  0  0)  ( 1  0  0)  ( 1  0  0)  ( 1  0  0)  ( 1  0  0)
  ( 0  1  0)  ( 0  1  0)  ( 0  0  1)  ( 0  0  1)  ( 0  0 -1)  ( 0  0 -1)
  ( 0  0  1)  ( 0  0 -1)  ( 0  1  0)  ( 0 -1  0)  ( 0  1  0)  ( 0 -1  0)

  ( 1  0  0)  ( 1  0  0)
  ( 0 -1  0)  ( 0 -1  0)
  ( 0  0  1)  ( 0  0 -1)

1 k-point (Gamma)
1 k-point in the irreducible part of the Brillouin zone
       k-points in crystal coordinates                weights
   0:     0.00000000    0.00000000    0.00000000          1/1

Wave functions: Plane wave expansion
  Cutoff energy: 350.000 eV
  Number of coefficients: 3191 (reduced to 1596)
  Pulay-stress correction: 0.000000 eV/Ang^3 (de/decut=0.000000)
  Using Numpy's FFT
  ScaLapack parameters: grid=1x1, blocksize=None
  Wavefunction extrapolation:
    Improved wavefunction reuse through dual PAW basis 

Occupation numbers: Methfessel-Paxton:
  width: 0.0100  # eV
  order: 0
 

Eigensolver
   Davidson(niter=2) 

Densities:
  Coarse grid: 27*27*27 grid
  Fine grid: 54*54*54 grid
  Total Charge: 0.000000 

Density mixing:
  Method: separate
  Backend: pulay
  Linear mixing parameter: 0.05
  old densities: 5
  Damping of long wavelength oscillations: 50 

Hamiltonian:
  XC and Coulomb potentials evaluated on a 54*54*54 grid
  Using the PBE Exchange-Correlation functional
  External potential:
    NoExternalPotential
 

XC parameters: PBE with 2 nearest neighbor stencil

Memory estimate:
  Process memory now: 207.33 MiB
  Calculator: 13.39 MiB
    Density: 9.67 MiB
      Arrays: 3.90 MiB
      Localized functions: 4.27 MiB
      Mixer: 1.50 MiB
    Hamiltonian: 2.66 MiB
      Arrays: 2.55 MiB
      XC: 0.00 MiB
      Poisson: 0.00 MiB
      vbar: 0.10 MiB
    Wavefunctions: 1.06 MiB
      Arrays psit_nG: 0.15 MiB
      Eigensolver: 0.27 MiB
      Projections: 0.00 MiB
      Projectors: 0.23 MiB
      PW-descriptor: 0.41 MiB

Total number of cores used: 1

Number of atoms: 2
Number of atomic orbitals: 8
Number of bands in calculation: 6
Number of valence electrons: 10
Bands to converge: occupied

... initialized

Initializing position-dependent things.

Density initialized from atomic densities
Creating initial wave functions:
  6 bands from LCAO basis set

     .--------------.  
    /|              |  
   / |              |  
  /  |              |  
 *   |              |  
 |   |              |  
 |   |              |  
 |   .--------------.  
 |  /              /   
 | /              /    
 |/              /     
 C--O-----------*      

Positions:
   0 C      0.000000    0.000000    0.000000    ( 0.0000,  0.0000,  0.0000)
   1 O      1.200000    0.000000    0.000000    ( 0.0000,  0.0000,  0.0000)

Unit cell:
           periodic     x           y           z      points  spacing
  1. axis:    no     6.000000    0.000000    0.000000    27     0.2222
  2. axis:    no     0.000000    6.000000    0.000000    27     0.2222
  3. axis:    no     0.000000    0.000000    6.000000    27     0.2222

  Lengths:   6.000000   6.000000   6.000000
  Angles:   90.000000  90.000000  90.000000

Effective grid spacing dv^(1/3) = 0.2222

     iter     time        total  log10-change:
                         energy  eigst   dens
iter:   1 18:02:08   -11.208910
iter:   2 18:02:08   -11.233290  -0.98  -0.93
iter:   3 18:02:08   -11.108641  -1.23  -0.97
iter:   4 18:02:08   -11.044305  -1.14  -1.13
iter:   5 18:02:09   -10.996460  -1.71  -1.60
iter:   6 18:02:09   -11.000452  -1.97  -1.98
iter:   7 18:02:09   -11.029232  -1.49  -1.93
iter:   8 18:02:09   -10.993265  -1.63  -1.67
iter:   9 18:02:10   -10.993040  -2.83  -2.31
iter:  10 18:02:10   -10.992522c -3.77  -2.37
iter:  11 18:02:10   -10.992091c -4.46  -2.48
iter:  12 18:02:10   -10.992016c -3.44  -2.66
iter:  13 18:02:10   -10.991926c -5.25  -2.82
iter:  14 18:02:11   -10.991844c -4.05  -2.91
iter:  15 18:02:11   -10.991865c -4.28  -3.24
iter:  16 18:02:11   -10.991838c -5.87  -3.15
iter:  17 18:02:11   -10.991842c -6.16  -3.30
iter:  18 18:02:11   -10.991824c -5.07  -3.25
iter:  19 18:02:12   -10.991825c -6.40  -3.76
iter:  20 18:02:12   -10.991824c -6.17  -3.74
iter:  21 18:02:12   -10.991826c -5.99  -3.85
iter:  22 18:02:12   -10.991824c -6.27  -3.80
iter:  23 18:02:12   -10.991824c -6.44  -4.18c
iter:  24 18:02:12   -10.991824c -7.40  -4.16c
iter:  25 18:02:13   -10.991824c -8.06c -4.29c

Converged after 25 iterations.

Dipole moment: (-0.514074, 0.000000, 0.000000) |e|*Ang

Energy contributions relative to reference atoms: (reference = -3068.480417)

Kinetic:         -8.544261
Potential:       +5.916577
External:        +0.000000
XC:              -8.258226
Entropy (-ST):   +0.000000
Local:           -0.105915
--------------------------
Free energy:    -10.991824
Extrapolated:   -10.991824

 Band  Eigenvalues  Occupancy
    0    -28.07404    2.00000
    1    -13.49486    2.00000
    2    -10.38474    2.00000
    3    -10.38474    2.00000
    4     -8.33162    2.00000
    5     -1.66954    0.00000

Fermi level: -5.83856

Gap: 6.662 eV
Transition (v -> c):
  (s=0, k=0, n=4, [0.00, 0.00, 0.00]) -> (s=0, k=0, n=5, [0.00, 0.00, 0.00])
