
  ___ ___ ___ _ _ _  
 |   |   |_  | | | | 
 | | | | | . | | | | 
 |__ |  _|___|_____|  22.8.0
 |___|_|             

User:   tha@20175329-p01
Date:   Tue Jan 31 16:20:49 2023
Arch:   x86_64
Pid:    421
CWD:    /mnt/c/Users/thang/Desktop/lec_note/note_dft/notebook
Python: 3.10.8
gpaw:   /home/tha/app/miniconda3/envs/py310gpaw/lib/python3.10/site-packages/gpaw
_gpaw:  /home/tha/app/miniconda3/envs/py310gpaw/lib/python3.10/site-packages/
        _gpaw.cpython-310-x86_64-linux-gnu.so
ase:    /home/tha/app/miniconda3/envs/py310gpaw/lib/python3.10/site-packages/ase (version 3.22.1)
numpy:  /home/tha/app/miniconda3/envs/py310gpaw/lib/python3.10/site-packages/numpy (version 1.24.1)
scipy:  /home/tha/app/miniconda3/envs/py310gpaw/lib/python3.10/site-packages/scipy (version 1.10.0)
libxc:  5.2.3
units:  Angstrom and eV
cores: 1
OpenMP: True
OMP_NUM_THREADS: 1

Input parameters:
  basis: dzp
  h: 0.2
  mode: lcao

System changes: positions, numbers, cell, pbc, initial_charges, initial_magmoms 

Initialize ...

species:
  H:
    name: Hydrogen
    id: 4766778ce56282eaa64abeb28b7c1de3
    Z: 1.0
    valence: 1
    core: 0
    charge: 0.0
    file: /home/tha/app/miniconda3/envs/py310gpaw/share/gpaw/H.LDA.gz
    compensation charges: {type: gauss,
                           rc: 0.15,
                           lmax: 2}
    cutoffs: {filter: 0.85,
              core: 0.53}
    valence states:
      #              energy  rcut
      - 1s(1.00)    -6.353   0.476
      -  s          20.858   0.476
      -  p           0.000   0.476
  
    # LCAO basis set for H:
    #   Name: dzp
    #   File: /home/tha/app/miniconda3/envs/py310gpaw/share/gpaw/H.dzp.basis.gz
    #   Number of radial functions: 3
    #   Number of spherical harmonics: 5
    #     l=0, rc=6.4219 Bohr: 1s-sz confined orbital
    #     l=0, rc=3.6094 Bohr: 1s-dz split-valence wave
    #     l=1, rc=6.4219 Bohr: p-type Gaussian polarization
    #   Number of RI-basis functions 0

  O:
    name: Oxygen
    id: 9b9d51c344dea68c822856295a461509
    Z: 8.0
    valence: 6
    core: 2
    charge: 0.0
    file: /home/tha/app/miniconda3/envs/py310gpaw/share/gpaw/O.LDA.gz
    compensation charges: {type: gauss,
                           rc: 0.21,
                           lmax: 2}
    cutoffs: {filter: 1.17,
              core: 0.83}
    valence states:
      #              energy  rcut
      - 2s(2.00)   -23.752   0.688
      - 2p(4.00)    -9.195   0.598
      -  s           3.459   0.688
      -  p          18.016   0.598
      -  d           0.000   0.619
  
    # LCAO basis set for O:
    #   Name: dzp
    #   File: /home/tha/app/miniconda3/envs/py310gpaw/share/gpaw/O.dzp.basis.gz
    #   Number of radial functions: 5
    #   Number of spherical harmonics: 13
    #     l=0, rc=4.3438 Bohr: 2s-sz confined orbital
    #     l=1, rc=5.3906 Bohr: 2p-sz confined orbital
    #     l=0, rc=2.2969 Bohr: 2s-dz split-valence wave
    #     l=1, rc=2.8906 Bohr: 2p-dz split-valence wave
    #     l=2, rc=5.3906 Bohr: d-type Gaussian polarization
    #   Number of RI-basis functions 0

Reference energy: -2052.165985  # eV

Spin-paired calculation

Convergence criteria:
 Maximum [total energy] change in last 3 cyles: 0.0005 eV / electron
 Maximum integral of absolute [dens]ity change: 0.0001 electrons / valence electron
 Maximum integral of absolute [eigenst]ate change: 4e-08 eV^2 / valence electron
 Maximum number of scf [iter]ations: 333
 (Square brackets indicate name in SCF output, whereas a 'c' in
 the SCF output indicates the quantity has converged.)

Symmetries present (total): 2

  ( 1  0  0)  ( 1  0  0)
  ( 0  1  0)  ( 0  1  0)
  ( 0  0  1)  ( 0  0 -1)

1 k-point (Gamma)
1 k-point in the irreducible part of the Brillouin zone
       k-points in crystal coordinates                weights
   0:     0.00000000    0.00000000    0.00000000          1/1

Wave functions: LCAO
  Diagonalizer: Serial LAPACK
  Atomic Correction: dense with blas
  Data-type: float
 

Occupation numbers: # Zero width 

Eigensolver
   LCAO using direct dense diagonalizer 

Densities:
  Coarse grid: 40*40*36 grid
  Fine grid: 80*80*72 grid
  Total Charge: 0.000000 

Density mixing:
  Method: separate
  Backend: pulay
  Linear mixing parameter: 0.25
  old densities: 3
  Damping of long wavelength oscillations: 1  # (no daming) 

Hamiltonian:
  XC and Coulomb potentials evaluated on a 80*80*72 grid
  Using the LDA Exchange-Correlation functional
  Interpolation: tri-quintic (5. degree polynomial)
  Poisson solver: FastPoissonSolver using
    Stencil: 6*3+1=19 point O(h^6) finite-difference Laplacian
    FFT axes: []
    FST axes: [2, 0, 1]
 

Memory estimate:
  Process memory now: 358.12 MiB
  Calculator: 24.10 MiB
    Density: 14.66 MiB
      Arrays: 10.95 MiB
      Localized functions: 1.27 MiB
      Mixer: 2.44 MiB
    Hamiltonian: 7.26 MiB
      Arrays: 7.17 MiB
      XC: 0.00 MiB
      Poisson: 0.00 MiB
      vbar: 0.09 MiB
    Wavefunctions: 2.19 MiB
      C [qnM]: 0.00 MiB
      S, T [2 x qmm]: 0.01 MiB
      P [aqMi]: 0.00 MiB
      BasisFunctions: 2.18 MiB
      Eigensolver: 0.00 MiB

Total number of cores used: 1

Number of atoms: 3
Number of atomic orbitals: 23
Number of bands in calculation: 6
Number of valence electrons: 8
Bands to converge: occupied

... initialized

Initializing position-dependent things.

Density initialized from atomic densities
      .-------------------.  
     /|                   |  
    / |                   |  
   /  |                   |  
  /   |                   |  
 *    |                   |  
 |    |                   |  
 |    |     H  H          |  
 |    |                   |  
 |    .-------------------.  
 |   /                   /   
 |  /                   /    
 | /                   /     
 |/                   /      
 *-------------------*       

Positions:
   0 H      3.739901    3.500000    3.500000    ( 0.0000,  0.0000,  0.0000)
   1 H      4.697401    3.500000    3.500000    ( 0.0000,  0.0000,  0.0000)
   2 O      3.500000    4.426960    3.500000    ( 0.0000,  0.0000,  0.0000)

Unit cell:
           periodic     x           y           z      points  spacing
  1. axis:    no     8.197401    0.000000    0.000000    40     0.2049
  2. axis:    no     0.000000    7.926960    0.000000    40     0.1982
  3. axis:    no     0.000000    0.000000    7.000000    36     0.1944

  Lengths:   8.197401   7.926960   7.000000
  Angles:   90.000000  90.000000  90.000000

Effective grid spacing dv^(1/3) = 0.1991

     iter     time        total  log10-change:
                         energy  eigst   dens
iter:   1 16:20:49   -10.586161       c
iter:   2 16:20:49    -9.555106       c -0.75
iter:   3 16:20:49    -9.448909       c -0.98
iter:   4 16:20:49    -9.314393       c -1.10
iter:   5 16:20:49    -9.313920       c -2.32
iter:   6 16:20:50    -9.313802c      c -2.58
iter:   7 16:20:50    -9.313799c      c -3.17
iter:   8 16:20:50    -9.313800c      c -3.32
iter:   9 16:20:50    -9.313801c      c -3.59
iter:  10 16:20:50    -9.313801c      c -3.99
iter:  11 16:20:50    -9.313801c      c -4.25c

Converged after 11 iterations.

Dipole moment: (0.275848, -0.460189, -0.000000) |e|*Ang

Energy contributions relative to reference atoms: (reference = -2052.165985)

Kinetic:        +10.458087
Potential:       -9.397135
External:        +0.000000
XC:             -10.683236
Entropy (-ST):   +0.000000
Local:           +0.308483
--------------------------
Free energy:     -9.313801
Extrapolated:    -9.313801

 Band  Eigenvalues  Occupancy
    0    -24.20571    2.00000
    1    -12.07231    2.00000
    2     -7.86276    2.00000
    3     -6.55904    2.00000
    4     -4.40455    0.00000
    5      3.95181    0.00000

Fermi level: -5.48180

Gap: 2.154 eV
Transition (v -> c):
  (s=0, k=0, n=3, [0.00, 0.00, 0.00]) -> (s=0, k=0, n=4, [0.00, 0.00, 0.00])

Forces in eV/Ang:
  0 H    -3.95096   -4.33078    0.00000
  1 H     0.48468    3.55646    0.00000
  2 O     3.46402    0.68345    0.00000

System changes: positions 

Initializing position-dependent things.

Density initialized from wave functions
      .-------------------.  
     /|                   |  
    / |                   |  
   /  |                   |  
  /   |                   |  
 *    |                   |  
 |    |                   |  
 |    |     HO H          |  
 |    |                   |  
 |    .-------------------.  
 |   /                   /   
 |  /                   /    
 | /                   /     
 |/                   /      
 *-------------------*       

Positions:
   0 H      3.605107    3.352248    3.500000    ( 0.0000,  0.0000,  0.0000)
   1 H      4.713936    3.621335    3.500000    ( 0.0000,  0.0000,  0.0000)
   2 O      3.618181    4.450277    3.500000    ( 0.0000,  0.0000,  0.0000)

Unit cell:
           periodic     x           y           z      points  spacing
  1. axis:    no     8.197401    0.000000    0.000000    40     0.2049
  2. axis:    no     0.000000    7.926960    0.000000    40     0.1982
  3. axis:    no     0.000000    0.000000    7.000000    36     0.1944

  Lengths:   8.197401   7.926960   7.000000
  Angles:   90.000000  90.000000  90.000000

Effective grid spacing dv^(1/3) = 0.1991

     iter     time        total  log10-change:
                         energy  eigst   dens
iter:   1 16:20:50   -10.923194       c
iter:   2 16:20:50   -10.881639       c -1.35
iter:   3 16:20:50   -10.847182       c -1.51
iter:   4 16:20:50   -10.846388       c -2.24
iter:   5 16:20:50   -10.846136c      c -2.59
iter:   6 16:20:50   -10.846137c      c -3.34
iter:   7 16:20:51   -10.846138c      c -3.53
iter:   8 16:20:51   -10.846138c      c -3.87
iter:   9 16:20:51   -10.846138c      c -4.10c

Converged after 9 iterations.

Dipole moment: (0.221744, -0.478622, 0.000000) |e|*Ang

Energy contributions relative to reference atoms: (reference = -2052.165985)

Kinetic:         +4.524519
Potential:       -6.151613
External:        +0.000000
XC:              -9.531586
Entropy (-ST):   +0.000000
Local:           +0.312542
--------------------------
Free energy:    -10.846138
Extrapolated:   -10.846138

 Band  Eigenvalues  Occupancy
    0    -23.31749    2.00000
    1    -11.21588    2.00000
    2     -8.48054    2.00000
    3     -6.42784    2.00000
    4     -2.84359    0.00000
    5      1.60871    0.00000

Fermi level: -4.63572

Gap: 3.584 eV
Transition (v -> c):
  (s=0, k=0, n=3, [0.00, 0.00, 0.00]) -> (s=0, k=0, n=4, [0.00, 0.00, 0.00])

Forces in eV/Ang:
  0 H    -2.81056    2.13211    0.00000
  1 H    -1.73448    4.15728    0.00000
  2 O     4.53958   -6.30093    0.00000

System changes: positions 

Initializing position-dependent things.

Density initialized from wave functions
      .-------------------.  
     /|                   |  
    / |                   |  
   /  |                   |  
  /   |                   |  
 *    |                   |  
 |    |                   |  
 |    |    H O H          |  
 |    |                   |  
 |    .-------------------.  
 |   /                   /   
 |  /                   /    
 | /                   /     
 |/                   /      
 *-------------------*       

Positions:
   0 H      3.436659    3.244427    3.500000    ( 0.0000,  0.0000,  0.0000)
   1 H      4.703959    3.796945    3.500000    ( 0.0000,  0.0000,  0.0000)
   2 O      3.796453    4.379396    3.500000    ( 0.0000,  0.0000,  0.0000)

Unit cell:
           periodic     x           y           z      points  spacing
  1. axis:    no     8.197401    0.000000    0.000000    40     0.2049
  2. axis:    no     0.000000    7.926960    0.000000    40     0.1982
  3. axis:    no     0.000000    0.000000    7.000000    36     0.1944

  Lengths:   8.197401   7.926960   7.000000
  Angles:   90.000000  90.000000  90.000000

Effective grid spacing dv^(1/3) = 0.1991

     iter     time        total  log10-change:
                         energy  eigst   dens
iter:   1 16:20:51   -12.907186       c
iter:   2 16:20:51   -12.698302       c -1.13
iter:   3 16:20:51   -12.615324       c -1.33
iter:   4 16:20:51   -12.603002       c -1.69
iter:   5 16:20:51   -12.602097       c -2.22
iter:   6 16:20:51   -12.601779c      c -2.50
iter:   7 16:20:51   -12.601780c      c -3.30
iter:   8 16:20:51   -12.601781c      c -3.44
iter:   9 16:20:51   -12.601781c      c -4.06c

Converged after 9 iterations.

Dipole moment: (0.163008, -0.454846, 0.000000) |e|*Ang

Energy contributions relative to reference atoms: (reference = -2052.165985)

Kinetic:         +5.812669
Potential:       -8.000230
External:        +0.000000
XC:             -10.740302
Entropy (-ST):   +0.000000
Local:           +0.326083
--------------------------
Free energy:    -12.601781
Extrapolated:   -12.601781

 Band  Eigenvalues  Occupancy
    0    -23.54407    2.00000
    1    -10.08457    2.00000
    2     -9.92513    2.00000
    3     -6.42180    2.00000
    4     -0.77965    0.00000
    5      1.61456    0.00000

Fermi level: -3.60072

Gap: 5.642 eV
Transition (v -> c):
  (s=0, k=0, n=3, [0.00, 0.00, 0.00]) -> (s=0, k=0, n=4, [0.00, 0.00, 0.00])

Forces in eV/Ang:
  0 H    -0.16249    4.48578    0.00000
  1 H    -1.14510    2.69943    0.00000
  2 O     1.30143   -7.22287    0.00000

System changes: positions 

Initializing position-dependent things.

Density initialized from wave functions
      .-------------------.  
     /|                   |  
    / |                   |  
   /  |                   |  
  /   |                   |  
 *    |                   |  
 |    |                   |  
 |    |    H O H          |  
 |    |                   |  
 |    .-------------------.  
 |   /                   /   
 |  /                   /    
 | /                   /     
 |/                   /      
 *-------------------*       

Positions:
   0 H      3.356583    3.192153    3.500000    ( 0.0000,  0.0000,  0.0000)
   1 H      4.767165    3.986695    3.500000    ( 0.0000,  0.0000,  0.0000)
   2 O      3.812997    4.232529    3.500000    ( 0.0000,  0.0000,  0.0000)

Unit cell:
           periodic     x           y           z      points  spacing
  1. axis:    no     8.197401    0.000000    0.000000    40     0.2049
  2. axis:    no     0.000000    7.926960    0.000000    40     0.1982
  3. axis:    no     0.000000    0.000000    7.000000    36     0.1944

  Lengths:   8.197401   7.926960   7.000000
  Angles:   90.000000  90.000000  90.000000

Effective grid spacing dv^(1/3) = 0.1991

     iter     time        total  log10-change:
                         energy  eigst   dens
iter:   1 16:20:52   -13.476718       c
iter:   2 16:20:52   -13.368012       c -1.27
iter:   3 16:20:52   -13.343527       c -1.50
iter:   4 16:20:52   -13.334485       c -1.74
iter:   5 16:20:52   -13.334436       c -2.73
iter:   6 16:20:52   -13.334417c      c -2.94
iter:   7 16:20:52   -13.334419c      c -3.45
iter:   8 16:20:52   -13.334419c      c -3.74
iter:   9 16:20:52   -13.334419c      c -3.96
iter:  10 16:20:52   -13.334419c      c -4.47c

Converged after 10 iterations.

Dipole moment: (0.164616, -0.377812, -0.000000) |e|*Ang

Energy contributions relative to reference atoms: (reference = -2052.165985)

Kinetic:         +9.012570
Potential:      -10.495889
External:        +0.000000
XC:             -12.182931
Entropy (-ST):   +0.000000
Local:           +0.331831
--------------------------
Free energy:    -13.334419
Extrapolated:   -13.334419

 Band  Eigenvalues  Occupancy
    0    -23.79123    2.00000
    1    -11.63843    2.00000
    2     -8.74736    2.00000
    3     -6.38307    2.00000
    4      0.07172    0.00000
    5      2.61844    0.00000

Fermi level: -3.15568

Gap: 6.455 eV
Transition (v -> c):
  (s=0, k=0, n=3, [0.00, 0.00, 0.00]) -> (s=0, k=0, n=4, [0.00, 0.00, 0.00])

Forces in eV/Ang:
  0 H     1.69318    3.98176    0.00000
  1 H     0.19230   -0.00871    0.00000
  2 O    -1.88624   -4.01902    0.00000

System changes: positions 

Initializing position-dependent things.

Density initialized from wave functions
      .-------------------.  
     /|                   |  
    / |                   |  
   /  |                   |  
  /   |                   |  
 *    |                   |  
 |    |                   |  
 |    |    H O  H         |  
 |    |                   |  
 |    .-------------------.  
 |   /                   /   
 |  /                   /    
 | /                   /     
 |/                   /      
 *-------------------*       

Positions:
   0 H      3.356844    3.224247    3.500000    ( 0.0000,  0.0000,  0.0000)
   1 H      4.896582    4.094958    3.500000    ( 0.0000,  0.0000,  0.0000)
   2 O      3.683270    4.080309    3.500000    ( 0.0000,  0.0000,  0.0000)

Unit cell:
           periodic     x           y           z      points  spacing
  1. axis:    no     8.197401    0.000000    0.000000    40     0.2049
  2. axis:    no     0.000000    7.926960    0.000000    40     0.1982
  3. axis:    no     0.000000    0.000000    7.000000    36     0.1944

  Lengths:   8.197401   7.926960   7.000000
  Angles:   90.000000  90.000000  90.000000

Effective grid spacing dv^(1/3) = 0.1991

     iter     time        total  log10-change:
                         energy  eigst   dens
iter:   1 16:20:52   -12.899662       c
iter:   2 16:20:52   -12.773301       c -1.20
iter:   3 16:20:53   -12.718810       c -1.43
iter:   4 16:20:53   -12.719422       c -2.05
iter:   5 16:20:53   -12.719686c      c -2.33
iter:   6 16:20:53   -12.719709c      c -2.96
iter:   7 16:20:53   -12.719711c      c -3.27
iter:   8 16:20:53   -12.719713c      c -3.50
iter:   9 16:20:53   -12.719713c      c -3.95
iter:  10 16:20:53   -12.719713c      c -4.24c

Converged after 10 iterations.

Dipole moment: (0.255083, -0.278871, 0.000000) |e|*Ang

Energy contributions relative to reference atoms: (reference = -2052.165985)

Kinetic:        +10.408193
Potential:      -11.037290
External:        +0.000000
XC:             -12.423903
Entropy (-ST):   +0.000000
Local:           +0.333287
--------------------------
Free energy:    -12.719713
Extrapolated:   -12.719713

 Band  Eigenvalues  Occupancy
    0    -23.82987    2.00000
    1    -12.06026    2.00000
    2     -8.11677    2.00000
    3     -6.30287    2.00000
    4     -0.57763    0.00000
    5      3.10083    0.00000

Fermi level: -3.44025

Gap: 5.725 eV
Transition (v -> c):
  (s=0, k=0, n=3, [0.00, 0.00, 0.00]) -> (s=0, k=0, n=4, [0.00, 0.00, 0.00])

Forces in eV/Ang:
  0 H    -0.71323   -4.22971    0.00000
  1 H    -5.57179   -0.71291    0.00000
  2 O     6.26519    4.94548    0.00000

System changes: positions 

Initializing position-dependent things.

Density initialized from wave functions
      .-------------------.  
     /|                   |  
    / |                   |  
   /  |                   |  
  /   |                   |  
 *    |                   |  
 |    |                   |  
 |    |    H O H          |  
 |    |                   |  
 |    .-------------------.  
 |   /                   /   
 |  /                   /    
 | /                   /     
 |/                   /      
 *-------------------*       

Positions:
   0 H      3.356668    3.202555    3.500000    ( 0.0000,  0.0000,  0.0000)
   1 H      4.809109    4.021783    3.500000    ( 0.0000,  0.0000,  0.0000)
   2 O      3.770952    4.183195    3.500000    ( 0.0000,  0.0000,  0.0000)

Unit cell:
           periodic     x           y           z      points  spacing
  1. axis:    no     8.197401    0.000000    0.000000    40     0.2049
  2. axis:    no     0.000000    7.926960    0.000000    40     0.1982
  3. axis:    no     0.000000    0.000000    7.000000    36     0.1944

  Lengths:   8.197401   7.926960   7.000000
  Angles:   90.000000  90.000000  90.000000

Effective grid spacing dv^(1/3) = 0.1991

     iter     time        total  log10-change:
                         energy  eigst   dens
iter:   1 16:20:53   -13.574527       c
iter:   2 16:20:53   -13.525790       c -1.40
iter:   3 16:20:53   -13.505201       c -1.62
iter:   4 16:20:54   -13.505731       c -2.29
iter:   5 16:20:54   -13.505847c      c -2.68
iter:   6 16:20:54   -13.505855c      c -3.28
iter:   7 16:20:54   -13.505857c      c -3.59
iter:   8 16:20:54   -13.505857c      c -3.79
iter:   9 16:20:54   -13.505857c      c -4.58c

Converged after 9 iterations.

Dipole moment: (0.190789, -0.347059, -0.000000) |e|*Ang

Energy contributions relative to reference atoms: (reference = -2052.165985)

Kinetic:         +8.233854
Potential:       -9.938239
External:        +0.000000
XC:             -12.132454
Entropy (-ST):   +0.000000
Local:           +0.330982
--------------------------
Free energy:    -13.505857
Extrapolated:   -13.505857

 Band  Eigenvalues  Occupancy
    0    -23.63487    2.00000
    1    -11.86602    2.00000
    2     -8.50052    2.00000
    3     -6.34615    2.00000
    4      0.39225    0.00000
    5      2.44839    0.00000

Fermi level: -2.97695

Gap: 6.738 eV
Transition (v -> c):
  (s=0, k=0, n=3, [0.00, 0.00, 0.00]) -> (s=0, k=0, n=4, [0.00, 0.00, 0.00])

Forces in eV/Ang:
  0 H     1.34336    2.56005    0.00000
  1 H    -2.47176    0.10314    0.00000
  2 O     1.13991   -2.63705    0.00000

System changes: positions 

Initializing position-dependent things.

Density initialized from wave functions
      .-------------------.  
     /|                   |  
    / |                   |  
   /  |                   |  
  /   |                   |  
 *    |                   |  
 |    |                   |  
 |    |     HO H          |  
 |    |                   |  
 |    .-------------------.  
 |   /                   /   
 |  /                   /    
 | /                   /     
 |/                   /      
 *-------------------*       

Positions:
   0 H      3.467818    3.237341    3.500000    ( 0.0000,  0.0000,  0.0000)
   1 H      4.720648    4.048415    3.500000    ( 0.0000,  0.0000,  0.0000)
   2 O      3.749578    4.114830    3.500000    ( 0.0000,  0.0000,  0.0000)

Unit cell:
           periodic     x           y           z      points  spacing
  1. axis:    no     8.197401    0.000000    0.000000    40     0.2049
  2. axis:    no     0.000000    7.926960    0.000000    40     0.1982
  3. axis:    no     0.000000    0.000000    7.000000    36     0.1944

  Lengths:   8.197401   7.926960   7.000000
  Angles:   90.000000  90.000000  90.000000

Effective grid spacing dv^(1/3) = 0.1991

     iter     time        total  log10-change:
                         energy  eigst   dens
iter:   1 16:20:54   -13.660883       c
iter:   2 16:20:54   -13.612775       c -1.51
iter:   3 16:20:54   -13.605298       c -1.80
iter:   4 16:20:54   -13.604691       c -2.07
iter:   5 16:20:54   -13.604683c      c -2.91
iter:   6 16:20:54   -13.604679c      c -3.09
iter:   7 16:20:55   -13.604679c      c -3.92
iter:   8 16:20:55   -13.604679c      c -4.22c

Converged after 8 iterations.

Dipole moment: (0.221855, -0.313336, 0.000000) |e|*Ang

Energy contributions relative to reference atoms: (reference = -2052.165985)

Kinetic:        +17.342861
Potential:      -16.605349
External:        +0.000000
XC:             -14.680296
Entropy (-ST):   +0.000000
Local:           +0.338105
--------------------------
Free energy:    -13.604679
Extrapolated:   -13.604679

 Band  Eigenvalues  Occupancy
    0    -24.81763    2.00000
    1    -12.83240    2.00000
    2     -8.67904    2.00000
    3     -6.60332    2.00000
    4      1.32254    0.00000
    5      3.66657    0.00000

Fermi level: -2.64039

Gap: 7.926 eV
Transition (v -> c):
  (s=0, k=0, n=3, [0.00, 0.00, 0.00]) -> (s=0, k=0, n=4, [0.00, 0.00, 0.00])

Forces in eV/Ang:
  0 H    -1.22493   -3.51770    0.00000
  1 H     0.51229    0.03996    0.00000
  2 O     0.63890    3.55109    0.00000

System changes: positions 

Initializing position-dependent things.

Density initialized from wave functions
      .-------------------.  
     /|                   |  
    / |                   |  
   /  |                   |  
  /   |                   |  
 *    |                   |  
 |    |                   |  
 |    |    H O H          |  
 |    |                   |  
 |    .-------------------.  
 |   /                   /   
 |  /                   /    
 | /                   /     
 |/                   /      
 *-------------------*       

Positions:
   0 H      3.414915    3.220784    3.500000    ( 0.0000,  0.0000,  0.0000)
   1 H      4.762752    4.035739    3.500000    ( 0.0000,  0.0000,  0.0000)
   2 O      3.759751    4.147369    3.500000    ( 0.0000,  0.0000,  0.0000)

Unit cell:
           periodic     x           y           z      points  spacing
  1. axis:    no     8.197401    0.000000    0.000000    40     0.2049
  2. axis:    no     0.000000    7.926960    0.000000    40     0.1982
  3. axis:    no     0.000000    0.000000    7.000000    36     0.1944

  Lengths:   8.197401   7.926960   7.000000
  Angles:   90.000000  90.000000  90.000000

Effective grid spacing dv^(1/3) = 0.1991

     iter     time        total  log10-change:
                         energy  eigst   dens
iter:   1 16:20:55   -13.718085       c
iter:   2 16:20:55   -13.706263       c -1.81
iter:   3 16:20:55   -13.704833       c -2.13
iter:   4 16:20:55   -13.704771c      c -2.39
iter:   5 16:20:55   -13.704772c      c -3.20
iter:   6 16:20:55   -13.704775c      c -3.37
iter:   7 16:20:55   -13.704775c      c -4.27c

Converged after 7 iterations.

Dipole moment: (0.206634, -0.330604, -0.000000) |e|*Ang

Energy contributions relative to reference atoms: (reference = -2052.165985)

Kinetic:        +12.508779
Potential:      -13.125185
External:        +0.000000
XC:             -13.415453
Entropy (-ST):   +0.000000
Local:           +0.327084
--------------------------
Free energy:    -13.704775
Extrapolated:   -13.704775

 Band  Eigenvalues  Occupancy
    0    -24.21677    2.00000
    1    -12.36340    2.00000
    2     -8.58309    2.00000
    3     -6.47422    2.00000
    4      0.91534    0.00000
    5      3.11126    0.00000

Fermi level: -2.77944

Gap: 7.390 eV
Transition (v -> c):
  (s=0, k=0, n=3, [0.00, 0.00, 0.00]) -> (s=0, k=0, n=4, [0.00, 0.00, 0.00])

Forces in eV/Ang:
  0 H     0.17049    0.14928    0.00000
  1 H    -1.08494   -0.00882    0.00000
  2 O     0.90855   -0.07654    0.00000

System changes: positions 

Initializing position-dependent things.

Density initialized from wave functions
      .-------------------.  
     /|                   |  
    / |                   |  
   /  |                   |  
  /   |                   |  
 *    |                   |  
 |    |                   |  
 |    |    H O H          |  
 |    |                   |  
 |    .-------------------.  
 |   /                   /   
 |  /                   /    
 | /                   /     
 |/                   /      
 *-------------------*       

Positions:
   0 H      3.432319    3.228343    3.500000    ( 0.0000,  0.0000,  0.0000)
   1 H      4.735089    4.024582    3.500000    ( 0.0000,  0.0000,  0.0000)
   2 O      3.768896    4.156147    3.500000    ( 0.0000,  0.0000,  0.0000)

Unit cell:
           periodic     x           y           z      points  spacing
  1. axis:    no     8.197401    0.000000    0.000000    40     0.2049
  2. axis:    no     0.000000    7.926960    0.000000    40     0.1982
  3. axis:    no     0.000000    0.000000    7.000000    36     0.1944

  Lengths:   8.197401   7.926960   7.000000
  Angles:   90.000000  90.000000  90.000000

Effective grid spacing dv^(1/3) = 0.1991

     iter     time        total  log10-change:
                         energy  eigst   dens
iter:   1 16:20:55   -13.719084       c
iter:   2 16:20:55   -13.717274       c -2.19
iter:   3 16:20:56   -13.716736c      c -2.42
iter:   4 16:20:56   -13.716684c      c -2.77
iter:   5 16:20:56   -13.716684c      c -3.47
iter:   6 16:20:56   -13.716683c      c -3.67
iter:   7 16:20:56   -13.716683c      c -4.41c

Converged after 7 iterations.

Dipole moment: (0.201712, -0.337605, 0.000000) |e|*Ang

Energy contributions relative to reference atoms: (reference = -2052.165985)

Kinetic:        +14.118990
Potential:      -14.333885
External:        +0.000000
XC:             -13.836761
Entropy (-ST):   +0.000000
Local:           +0.334972
--------------------------
Free energy:    -13.716683
Extrapolated:   -13.716683

 Band  Eigenvalues  Occupancy
    0    -24.44994    2.00000
    1    -12.43870    2.00000
    2     -8.70921    2.00000
    3     -6.52929    2.00000
    4      1.06435    0.00000
    5      3.29786    0.00000

Fermi level: -2.73247

Gap: 7.594 eV
Transition (v -> c):
  (s=0, k=0, n=3, [0.00, 0.00, 0.00]) -> (s=0, k=0, n=4, [0.00, 0.00, 0.00])

Forces in eV/Ang:
  0 H    -0.05865    0.11384    0.00000
  1 H     0.53425   -0.00293    0.00000
  2 O    -0.45392   -0.05745    0.00000

System changes: positions 

Initializing position-dependent things.

Density initialized from wave functions
      .-------------------.  
     /|                   |  
    / |                   |  
   /  |                   |  
  /   |                   |  
 *    |                   |  
 |    |                   |  
 |    |    H O H          |  
 |    |                   |  
 |    .-------------------.  
 |   /                   /   
 |  /                   /    
 | /                   /     
 |/                   /      
 *-------------------*       

Positions:
   0 H      3.426774    3.225935    3.500000    ( 0.0000,  0.0000,  0.0000)
   1 H      4.743902    4.028136    3.500000    ( 0.0000,  0.0000,  0.0000)
   2 O      3.765982    4.153350    3.500000    ( 0.0000,  0.0000,  0.0000)

Unit cell:
           periodic     x           y           z      points  spacing
  1. axis:    no     8.197401    0.000000    0.000000    40     0.2049
  2. axis:    no     0.000000    7.926960    0.000000    40     0.1982
  3. axis:    no     0.000000    0.000000    7.000000    36     0.1944

  Lengths:   8.197401   7.926960   7.000000
  Angles:   90.000000  90.000000  90.000000

Effective grid spacing dv^(1/3) = 0.1991

     iter     time        total  log10-change:
                         energy  eigst   dens
iter:   1 16:20:56   -13.719852       c
iter:   2 16:20:56   -13.719671       c -2.68
iter:   3 16:20:56   -13.719618c      c -2.91
iter:   4 16:20:56   -13.719613c      c -3.26
iter:   5 16:20:56   -13.719613c      c -3.96
iter:   6 16:20:56   -13.719613c      c -4.16c

Converged after 6 iterations.

Dipole moment: (0.203353, -0.335339, 0.000000) |e|*Ang

Energy contributions relative to reference atoms: (reference = -2052.165985)

Kinetic:        +13.589996
Potential:      -13.939195
External:        +0.000000
XC:             -13.700711
Entropy (-ST):   +0.000000
Local:           +0.330297
--------------------------
Free energy:    -13.719613
Extrapolated:   -13.719613

 Band  Eigenvalues  Occupancy
    0    -24.37305    2.00000
    1    -12.41576    2.00000
    2     -8.66836    2.00000
    3     -6.51152    2.00000
    4      1.02143    0.00000
    5      3.23672    0.00000

Fermi level: -2.74505

Gap: 7.533 eV
Transition (v -> c):
  (s=0, k=0, n=3, [0.00, 0.00, 0.00]) -> (s=0, k=0, n=4, [0.00, 0.00, 0.00])

Forces in eV/Ang:
  0 H     0.01315    0.12457    0.00000
  1 H    -0.01589    0.00586    0.00000
  2 O     0.01371   -0.07429    0.00000

System changes: positions 

Initializing position-dependent things.

Density initialized from wave functions
      .-------------------.  
     /|                   |  
    / |                   |  
   /  |                   |  
  /   |                   |  
 *    |                   |  
 |    |                   |  
 |    |    H O H          |  
 |    |                   |  
 |    .-------------------.  
 |   /                   /   
 |  /                   /    
 | /                   /     
 |/                   /      
 *-------------------*       

Positions:
   0 H      3.426495    3.230188    3.500000    ( 0.0000,  0.0000,  0.0000)
   1 H      4.744207    4.028418    3.500000    ( 0.0000,  0.0000,  0.0000)
   2 O      3.767061    4.154574    3.500000    ( 0.0000,  0.0000,  0.0000)

Unit cell:
           periodic     x           y           z      points  spacing
  1. axis:    no     8.197401    0.000000    0.000000    40     0.2049
  2. axis:    no     0.000000    7.926960    0.000000    40     0.1982
  3. axis:    no     0.000000    0.000000    7.000000    36     0.1944

  Lengths:   8.197401   7.926960   7.000000
  Angles:   90.000000  90.000000  90.000000

Effective grid spacing dv^(1/3) = 0.1991

     iter     time        total  log10-change:
                         energy  eigst   dens
iter:   1 16:20:56   -13.719938       c
iter:   2 16:20:57   -13.719922       c -3.23
iter:   3 16:20:57   -13.719918c      c -3.51
iter:   4 16:20:57   -13.719917c      c -3.86
iter:   5 16:20:57   -13.719917c      c -4.50c

Converged after 5 iterations.

Dipole moment: (0.202734, -0.335187, 0.000000) |e|*Ang

Energy contributions relative to reference atoms: (reference = -2052.165985)

Kinetic:        +13.710922
Potential:      -14.029026
External:        +0.000000
XC:             -13.735943
Entropy (-ST):   +0.000000
Local:           +0.334130
--------------------------
Free energy:    -13.719917
Extrapolated:   -13.719917

 Band  Eigenvalues  Occupancy
    0    -24.38855    2.00000
    1    -12.43311    2.00000
    2     -8.66721    2.00000
    3     -6.51484    2.00000
    4      1.03443    0.00000
    5      3.25314    0.00000

Fermi level: -2.74021

Gap: 7.549 eV
Transition (v -> c):
  (s=0, k=0, n=3, [0.00, 0.00, 0.00]) -> (s=0, k=0, n=4, [0.00, 0.00, 0.00])
