
  ___ ___ ___ _ _ _  
 |   |   |_  | | | | 
 | | | | | . | | | | 
 |__ |  _|___|_____|  22.8.0
 |___|_|             

User:   tha@Tha-DELL
Date:   Sun Jan 29 23:37:00 2023
Arch:   x86_64
Pid:    2233
CWD:    /mnt/c/DATA/work/lec_note/note_dft/notebook
Python: 3.10.8
gpaw:   /home/tha/app/miniconda3/envs/py310gpaw/lib/python3.10/site-packages/gpaw
_gpaw:  /home/tha/app/miniconda3/envs/py310gpaw/lib/python3.10/site-packages/
        _gpaw.cpython-310-x86_64-linux-gnu.so
ase:    /home/tha/app/miniconda3/envs/py310gpaw/lib/python3.10/site-packages/ase (version 3.22.1)
numpy:  /home/tha/app/miniconda3/envs/py310gpaw/lib/python3.10/site-packages/numpy (version 1.23.5)
scipy:  /home/tha/app/miniconda3/envs/py310gpaw/lib/python3.10/site-packages/scipy (version 1.9.3)
libxc:  5.2.3
units:  Angstrom and eV
cores: 1
OpenMP: True
OMP_NUM_THREADS: 1

Input parameters:
  basis: sz(dzp)
  mode: lcao
  occupations: {fixmagmom: False,
                name: fermi-dirac,
                width: 0.1}
  setups: {Ag: 11}

System changes: positions, numbers, cell, pbc, initial_charges, initial_magmoms 

Initialize ...

species:
  Ag:
    name: Silver
    id: aac732a7f42225a52edcbbb6e277d3cd
    Z: 47.0
    valence: 11
    core: 36
    charge: 0.0
    file: /home/tha/app/miniconda3/envs/py310gpaw/share/gpaw/Ag.11.LDA.gz
    compensation charges: {type: gauss,
                           rc: 0.41,
                           lmax: 2}
    cutoffs: {filter: 2.31,
              core: 2.78}
    valence states:
      #              energy  rcut
      - 5s(1.00)    -4.708   1.296
      - 5p(0.00)    -0.844   1.296
      - 4d(10.00)    -7.664   1.296
      -  s          22.503   1.296
      -  p          26.368   1.296
      -  d          19.547   1.296
  
    # LCAO basis set for Ag:
    #   Name: sz(11.dzp)
    #   File: /home/tha/app/miniconda3/envs/py310gpaw/share/gpaw/Ag.11.dzp.basis.gz
    #   Number of radial functions: 2
    #   Number of spherical harmonics: 6
    #     l=0, rc=9.3125 Bohr: 5s-sz confined orbital
    #     l=2, rc=5.5000 Bohr: 4d-sz confined orbital
    #   Number of RI-basis functions 0

Reference energy: -7945549.273976  # eV

Spin-paired calculation

Convergence criteria:
 Maximum [total energy] change in last 3 cyles: 0.0005 eV / electron
 Maximum integral of absolute [dens]ity change: 0.0001 electrons / valence electron
 Maximum integral of absolute [eigenst]ate change: 4e-08 eV^2 / valence electron
 Maximum number of scf [iter]ations: 333
 (Square brackets indicate name in SCF output, whereas a 'c' in
 the SCF output indicates the quantity has converged.)

Symmetries present (total): 48

  ( 1  0  0)  ( 1  0  0)  ( 1  0  0)  ( 1  0  0)  ( 1  0  0)  ( 1  0  0)
  ( 0  1  0)  ( 0  1  0)  ( 0  0  1)  ( 0  0  1)  ( 0  0 -1)  ( 0  0 -1)
  ( 0  0  1)  ( 0  0 -1)  ( 0  1  0)  ( 0 -1  0)  ( 0  1  0)  ( 0 -1  0)

  ( 1  0  0)  ( 1  0  0)  ( 0  1  0)  ( 0  1  0)  ( 0  1  0)  ( 0  1  0)
  ( 0 -1  0)  ( 0 -1  0)  ( 1  0  0)  ( 1  0  0)  ( 0  0  1)  ( 0  0  1)
  ( 0  0  1)  ( 0  0 -1)  ( 0  0  1)  ( 0  0 -1)  ( 1  0  0)  (-1  0  0)

  ( 0  1  0)  ( 0  1  0)  ( 0  1  0)  ( 0  1  0)  ( 0  0  1)  ( 0  0  1)
  ( 0  0 -1)  ( 0  0 -1)  (-1  0  0)  (-1  0  0)  ( 1  0  0)  ( 1  0  0)
  ( 1  0  0)  (-1  0  0)  ( 0  0  1)  ( 0  0 -1)  ( 0  1  0)  ( 0 -1  0)

  ( 0  0  1)  ( 0  0  1)  ( 0  0  1)  ( 0  0  1)  ( 0  0  1)  ( 0  0  1)
  ( 0  1  0)  ( 0  1  0)  ( 0 -1  0)  ( 0 -1  0)  (-1  0  0)  (-1  0  0)
  ( 1  0  0)  (-1  0  0)  ( 1  0  0)  (-1  0  0)  ( 0  1  0)  ( 0 -1  0)

  ( 0  0 -1)  ( 0  0 -1)  ( 0  0 -1)  ( 0  0 -1)  ( 0  0 -1)  ( 0  0 -1)
  ( 1  0  0)  ( 1  0  0)  ( 0  1  0)  ( 0  1  0)  ( 0 -1  0)  ( 0 -1  0)
  ( 0  1  0)  ( 0 -1  0)  ( 1  0  0)  (-1  0  0)  ( 1  0  0)  (-1  0  0)

  ( 0  0 -1)  ( 0  0 -1)  ( 0 -1  0)  ( 0 -1  0)  ( 0 -1  0)  ( 0 -1  0)
  (-1  0  0)  (-1  0  0)  ( 1  0  0)  ( 1  0  0)  ( 0  0  1)  ( 0  0  1)
  ( 0  1  0)  ( 0 -1  0)  ( 0  0  1)  ( 0  0 -1)  ( 1  0  0)  (-1  0  0)

  ( 0 -1  0)  ( 0 -1  0)  ( 0 -1  0)  ( 0 -1  0)  (-1  0  0)  (-1  0  0)
  ( 0  0 -1)  ( 0  0 -1)  (-1  0  0)  (-1  0  0)  ( 0  1  0)  ( 0  1  0)
  ( 1  0  0)  (-1  0  0)  ( 0  0  1)  ( 0  0 -1)  ( 0  0  1)  ( 0  0 -1)

  (-1  0  0)  (-1  0  0)  (-1  0  0)  (-1  0  0)  (-1  0  0)  (-1  0  0)
  ( 0  0  1)  ( 0  0  1)  ( 0  0 -1)  ( 0  0 -1)  ( 0 -1  0)  ( 0 -1  0)
  ( 0  1  0)  ( 0 -1  0)  ( 0  1  0)  ( 0 -1  0)  ( 0  0  1)  ( 0  0 -1)

1 k-point (Gamma)
1 k-point in the irreducible part of the Brillouin zone
       k-points in crystal coordinates                weights
   0:     0.00000000    0.00000000    0.00000000          1/1

Wave functions: LCAO
  Diagonalizer: Serial LAPACK
  Atomic Correction: dense with blas
  Data-type: float
 

Occupation numbers: Fermi-Dirac:
  width: 0.1000  # eV
 

Eigensolver
   LCAO using direct dense diagonalizer 

Densities:
  Coarse grid: 80*80*80 grid
  Fine grid: 160*160*160 grid
  Total Charge: 0.000000 

Density mixing:
  Method: separate
  Backend: pulay
  Linear mixing parameter: 0.25
  old densities: 3
  Damping of long wavelength oscillations: 1  # (no daming) 

Hamiltonian:
  XC and Coulomb potentials evaluated on a 160*160*160 grid
  Using the LDA Exchange-Correlation functional
  Interpolation: tri-quintic (5. degree polynomial)
  Poisson solver: FastPoissonSolver using
    Stencil: 6*3+1=19 point O(h^6) finite-difference Laplacian
    FFT axes: []
    FST axes: [0, 1, 2]
 

Memory estimate:
  Process memory now: 500.86 MiB
  Calculator: 539.39 MiB
    Density: 397.79 MiB
      Arrays: 99.53 MiB
      Localized functions: 275.69 MiB
      Mixer: 22.57 MiB
    Hamiltonian: 86.34 MiB
      Arrays: 65.10 MiB
      XC: 0.00 MiB
      Poisson: 0.00 MiB
      vbar: 21.24 MiB
    Wavefunctions: 55.26 MiB
      C [qnM]: 0.83 MiB
      S, T [2 x qmm]: 1.66 MiB
      P [aqMi]: 0.31 MiB
      BasisFunctions: 52.46 MiB
      Eigensolver: 0.00 MiB

Total number of cores used: 1

Number of atoms: 55
Number of atomic orbitals: 330
Number of bands in calculation: 330
Number of valence electrons: 605
Bands to converge: occupied

... initialized

Initializing position-dependent things.

Density initialized from atomic densities
           .---------------------------------------.  
          /|                                       |  
         / |                                       |  
        /  |                                       |  
       /   |                                       |  
      /    |                                       |  
     /     |                                       |  
    /      |                                       |  
   /       |                Ag                     |  
  /        |          Ag        Ag                 |  
 *         |    Ag      AgAg     Ag Ag             |  
 |         |     Ag Ag     Ag Ag     Ag            |  
 |         |                 Ag                    |  
 |         |       AgAg Ag     Ag     Ag           |  
 |         |   Ag     Ag Ag     Ag Ag              |  
 |         |    Ag Ag   AgAgAg   Ag Ag             |  
 |         |     Ag Ag     Ag Ag     Ag            |  
 |         |  Ag     Ag     Ag AgAg                |  
 |         |           Ag                          |  
 |         |   Ag     Ag Ag     Ag Ag              |  
 |         .----Ag-Ag-----AgAg------Ag-------------.  
 |        /         Ag        Ag                  /   
 |       /              Ag                       /    
 |      /                                       /     
 |     /                                       /      
 |    /                                       /       
 |   /                                       /        
 |  /                                       /         
 | /                                       /          
 |/                                       /           
 *---------------------------------------*            

Positions:
   0 Ag     4.039592    6.044081    6.044081    ( 0.0000,  0.0000,  0.0000)
   1 Ag     6.044081    4.039592    6.044081    ( 0.0000,  0.0000,  0.0000)
   2 Ag     6.044081    6.044081    4.039592    ( 0.0000,  0.0000,  0.0000)
   3 Ag     4.090932    4.090932    8.046482    ( 0.0000,  0.0000,  0.0000)
   4 Ag     4.039592    6.044081   10.048883    ( 0.0000,  0.0000,  0.0000)
   5 Ag     6.044081    4.039592   10.048883    ( 0.0000,  0.0000,  0.0000)
   6 Ag     6.038944    6.038944    8.046482    ( 0.0000,  0.0000,  0.0000)
   7 Ag     6.044081    6.044081   12.053373    ( 0.0000,  0.0000,  0.0000)
   8 Ag     4.090932    8.046482    4.090932    ( 0.0000,  0.0000,  0.0000)
   9 Ag     4.039592   10.048883    6.044081    ( 0.0000,  0.0000,  0.0000)
  10 Ag     6.038944    8.046482    6.038944    ( 0.0000,  0.0000,  0.0000)
  11 Ag     6.044081   10.048883    4.039592    ( 0.0000,  0.0000,  0.0000)
  12 Ag     4.000000    8.046482    8.046482    ( 0.0000,  0.0000,  0.0000)
  13 Ag     4.039592   10.048883   10.048883    ( 0.0000,  0.0000,  0.0000)
  14 Ag     6.038944    8.046482   10.054020    ( 0.0000,  0.0000,  0.0000)
  15 Ag     6.038944   10.054020    8.046482    ( 0.0000,  0.0000,  0.0000)
  16 Ag     4.090932    8.046482   12.002033    ( 0.0000,  0.0000,  0.0000)
  17 Ag     6.044081   10.048883   12.053373    ( 0.0000,  0.0000,  0.0000)
  18 Ag     6.044081   12.053373    6.044081    ( 0.0000,  0.0000,  0.0000)
  19 Ag     4.090932   12.002033    8.046482    ( 0.0000,  0.0000,  0.0000)
  20 Ag     6.044081   12.053373   10.048883    ( 0.0000,  0.0000,  0.0000)
  21 Ag     8.046482    4.090932    4.090932    ( 0.0000,  0.0000,  0.0000)
  22 Ag     8.046482    6.038944    6.038944    ( 0.0000,  0.0000,  0.0000)
  23 Ag    10.048883    4.039592    6.044081    ( 0.0000,  0.0000,  0.0000)
  24 Ag    10.048883    6.044081    4.039592    ( 0.0000,  0.0000,  0.0000)
  25 Ag     8.046482    4.000000    8.046482    ( 0.0000,  0.0000,  0.0000)
  26 Ag     8.046482    6.038944   10.054020    ( 0.0000,  0.0000,  0.0000)
  27 Ag    10.048883    4.039592   10.048883    ( 0.0000,  0.0000,  0.0000)
  28 Ag    10.054020    6.038944    8.046482    ( 0.0000,  0.0000,  0.0000)
  29 Ag     8.046482    4.090932   12.002033    ( 0.0000,  0.0000,  0.0000)
  30 Ag    10.048883    6.044081   12.053373    ( 0.0000,  0.0000,  0.0000)
  31 Ag     8.046482    8.046482    4.000000    ( 0.0000,  0.0000,  0.0000)
  32 Ag     8.046482   10.054020    6.038944    ( 0.0000,  0.0000,  0.0000)
  33 Ag    10.054020    8.046482    6.038944    ( 0.0000,  0.0000,  0.0000)
  34 Ag    10.048883   10.048883    4.039592    ( 0.0000,  0.0000,  0.0000)
  35 Ag     8.046482    8.046482    8.046482    ( 0.0000,  0.0000,  0.0000)
  36 Ag     8.046482   10.054020   10.054020    ( 0.0000,  0.0000,  0.0000)
  37 Ag    10.054020    8.046482   10.054020    ( 0.0000,  0.0000,  0.0000)
  38 Ag    10.054020   10.054020    8.046482    ( 0.0000,  0.0000,  0.0000)
  39 Ag     8.046482    8.046482   12.092965    ( 0.0000,  0.0000,  0.0000)
  40 Ag    10.048883   10.048883   12.053373    ( 0.0000,  0.0000,  0.0000)
  41 Ag     8.046482   12.002033    4.090932    ( 0.0000,  0.0000,  0.0000)
  42 Ag    10.048883   12.053373    6.044081    ( 0.0000,  0.0000,  0.0000)
  43 Ag     8.046482   12.092965    8.046482    ( 0.0000,  0.0000,  0.0000)
  44 Ag    10.048883   12.053373   10.048883    ( 0.0000,  0.0000,  0.0000)
  45 Ag     8.046482   12.002033   12.002033    ( 0.0000,  0.0000,  0.0000)
  46 Ag    12.053373    6.044081    6.044081    ( 0.0000,  0.0000,  0.0000)
  47 Ag    12.002033    4.090932    8.046482    ( 0.0000,  0.0000,  0.0000)
  48 Ag    12.053373    6.044081   10.048883    ( 0.0000,  0.0000,  0.0000)
  49 Ag    12.002033    8.046482    4.090932    ( 0.0000,  0.0000,  0.0000)
  50 Ag    12.053373   10.048883    6.044081    ( 0.0000,  0.0000,  0.0000)
  51 Ag    12.092965    8.046482    8.046482    ( 0.0000,  0.0000,  0.0000)
  52 Ag    12.053373   10.048883   10.048883    ( 0.0000,  0.0000,  0.0000)
  53 Ag    12.002033    8.046482   12.002033    ( 0.0000,  0.0000,  0.0000)
  54 Ag    12.002033   12.002033    8.046482    ( 0.0000,  0.0000,  0.0000)

Unit cell:
           periodic     x           y           z      points  spacing
  1. axis:    no    16.092965    0.000000    0.000000    80     0.2012
  2. axis:    no     0.000000   16.092965    0.000000    80     0.2012
  3. axis:    no     0.000000    0.000000   16.092965    80     0.2012

  Lengths:  16.092965  16.092965  16.092965
  Angles:   90.000000  90.000000  90.000000

Effective grid spacing dv^(1/3) = 0.2012

     iter     time        total  log10-change:
                         energy  eigst   dens
iter:   1 23:37:08   -88.528569       c
iter:   2 23:37:11   -86.167685       c -1.83
iter:   3 23:37:13   -85.472255       c -2.01
iter:   4 23:37:16   -85.239721       c -2.30
iter:   5 23:37:19   -85.234843c      c -3.26
iter:   6 23:37:23   -85.233261c      c -3.59
iter:   7 23:37:26   -85.233123c      c -4.27c

Converged after 7 iterations.

Dipole moment: (-0.000000, -0.000000, 0.000000) |e|*Ang

Energy contributions relative to reference atoms: (reference = -7945549.273976)

Kinetic:       +2693.939799
Potential:     -2408.388230
External:        +0.000000
XC:            -372.203531
Entropy (-ST):   -0.314812
Local:           +1.576247
--------------------------
Free energy:    -85.390529
Extrapolated:   -85.233123

 Band  Eigenvalues  Occupancy
    0    -12.79225    2.00000
    1    -11.64014    2.00000
    2    -11.64014    2.00000
    3    -11.64014    2.00000
    4    -11.19308    2.00000
    5    -11.19308    2.00000
    6    -11.19308    2.00000
    7    -11.07343    2.00000
    8    -10.95643    2.00000
    9    -10.95643    2.00000
   10    -10.59941    2.00000
   11    -10.59941    2.00000
   12    -10.59941    2.00000
   13    -10.53922    2.00000
   14    -10.42339    2.00000
   15    -10.30320    2.00000
   16    -10.30320    2.00000
   17    -10.30320    2.00000
   18    -10.19051    2.00000
   19    -10.19051    2.00000
   20    -10.19051    2.00000
   21    -10.09987    2.00000
   22    -10.09987    2.00000
   23     -9.95430    2.00000
   24     -9.95430    2.00000
   25     -9.95430    2.00000
   26     -9.88956    2.00000
   27     -9.88956    2.00000
   28     -9.85531    2.00000
   29     -9.85531    2.00000
   30     -9.85531    2.00000
   31     -9.84156    2.00000
   32     -9.84156    2.00000
   33     -9.84156    2.00000
   34     -9.66700    2.00000
   35     -9.66700    2.00000
   36     -9.66700    2.00000
   37     -9.60735    2.00000
   38     -9.60735    2.00000
   39     -9.60735    2.00000
   40     -9.54426    2.00000
   41     -9.54426    2.00000
   42     -9.54426    2.00000
   43     -9.50789    2.00000
   44     -9.50789    2.00000
   45     -9.50288    2.00000
   46     -9.50288    2.00000
   47     -9.50288    2.00000
   48     -9.50024    2.00000
   49     -9.37783    2.00000
   50     -9.37783    2.00000
   51     -9.37783    2.00000
   52     -9.29799    2.00000
   53     -9.29799    2.00000
   54     -9.20777    2.00000
   55     -9.20777    2.00000
   56     -9.20777    2.00000
   57     -9.04018    2.00000
   58     -9.01192    2.00000
   59     -8.97816    2.00000
   60     -8.97816    2.00000
   61     -8.97650    2.00000
   62     -8.97650    2.00000
   63     -8.97650    2.00000
   64     -8.92405    2.00000
   65     -8.92405    2.00000
   66     -8.92405    2.00000
   67     -8.90318    2.00000
   68     -8.90318    2.00000
   69     -8.90318    2.00000
   70     -8.83719    2.00000
   71     -8.83719    2.00000
   72     -8.83719    2.00000
   73     -8.70614    2.00000
   74     -8.69480    2.00000
   75     -8.69480    2.00000
   76     -8.65578    2.00000
   77     -8.65434    2.00000
   78     -8.65434    2.00000
   79     -8.65434    2.00000
   80     -8.63232    2.00000
   81     -8.63232    2.00000
   82     -8.63232    2.00000
   83     -8.52986    2.00000
   84     -8.52986    2.00000
   85     -8.48531    2.00000
   86     -8.48531    2.00000
   87     -8.48531    2.00000
   88     -8.46995    2.00000
   89     -8.46995    2.00000
   90     -8.46995    2.00000
   91     -8.43168    2.00000
   92     -8.38248    2.00000
   93     -8.38248    2.00000
   94     -8.38248    2.00000
   95     -8.36923    2.00000
   96     -8.36923    2.00000
   97     -8.36923    2.00000
   98     -8.36083    2.00000
   99     -8.36083    2.00000
  100     -8.36083    2.00000
  101     -8.33506    2.00000
  102     -8.33506    2.00000
  103     -8.31654    2.00000
  104     -8.31654    2.00000
  105     -8.31654    2.00000
  106     -8.30409    2.00000
  107     -8.30272    2.00000
  108     -8.30272    2.00000
  109     -8.30272    2.00000
  110     -8.21740    2.00000
  111     -8.21740    2.00000
  112     -8.20679    2.00000
  113     -8.20679    2.00000
  114     -8.20679    2.00000
  115     -8.17264    2.00000
  116     -8.17264    2.00000
  117     -8.17264    2.00000
  118     -8.04400    2.00000
  119     -8.04400    2.00000
  120     -8.04355    2.00000
  121     -8.04355    2.00000
  122     -8.04355    2.00000
  123     -7.99973    2.00000
  124     -7.94908    2.00000
  125     -7.94908    2.00000
  126     -7.94908    2.00000
  127     -7.91527    2.00000
  128     -7.91527    2.00000
  129     -7.91527    2.00000
  130     -7.84063    2.00000
  131     -7.84063    2.00000
  132     -7.84063    2.00000
  133     -7.77475    2.00000
  134     -7.77475    2.00000
  135     -7.76266    2.00000
  136     -7.76266    2.00000
  137     -7.76266    2.00000
  138     -7.75603    2.00000
  139     -7.75603    2.00000
  140     -7.65282    2.00000
  141     -7.65282    2.00000
  142     -7.61987    2.00000
  143     -7.61987    2.00000
  144     -7.61987    2.00000
  145     -7.59698    2.00000
  146     -7.59142    2.00000
  147     -7.59142    2.00000
  148     -7.59142    2.00000
  149     -7.58186    2.00000
  150     -7.54662    2.00000
  151     -7.49539    2.00000
  152     -7.49539    2.00000
  153     -7.49539    2.00000
  154     -7.48746    2.00000
  155     -7.48746    2.00000
  156     -7.48746    2.00000
  157     -7.40657    2.00000
  158     -7.40657    2.00000
  159     -7.40657    2.00000
  160     -7.38451    2.00000
  161     -7.38451    2.00000
  162     -7.38451    2.00000
  163     -7.35467    2.00000
  164     -7.30492    2.00000
  165     -7.30492    2.00000
  166     -7.30492    2.00000
  167     -7.28153    2.00000
  168     -7.28153    2.00000
  169     -7.28153    2.00000
  170     -7.21701    2.00000
  171     -7.21701    2.00000
  172     -7.15294    2.00000
  173     -7.15294    2.00000
  174     -7.15294    2.00000
  175     -7.14977    2.00000
  176     -7.14977    2.00000
  177     -7.12834    2.00000
  178     -7.12834    2.00000
  179     -7.12834    2.00000
  180     -7.10948    2.00000
  181     -7.10948    2.00000
  182     -7.10948    2.00000
  183     -7.10713    2.00000
  184     -7.10713    2.00000
  185     -7.10713    2.00000
  186     -7.07412    2.00000
  187     -7.04476    2.00000
  188     -7.04073    2.00000
  189     -7.04073    2.00000
  190     -7.04073    2.00000
  191     -7.03993    2.00000
  192     -7.03993    2.00000
  193     -7.03102    2.00000
  194     -7.03102    2.00000
  195     -7.03102    2.00000
  196     -6.99545    2.00000
  197     -6.98447    2.00000
  198     -6.98447    2.00000
  199     -6.98447    2.00000
  200     -6.96945    2.00000
  201     -6.96945    2.00000
  202     -6.96945    2.00000
  203     -6.93215    2.00000
  204     -6.93215    2.00000
  205     -6.93215    2.00000
  206     -6.91967    2.00000
  207     -6.91967    2.00000
  208     -6.91274    2.00000
  209     -6.91274    2.00000
  210     -6.91274    2.00000
  211     -6.86988    2.00000
  212     -6.86988    2.00000
  213     -6.86988    2.00000
  214     -6.83188    2.00000
  215     -6.83188    2.00000
  216     -6.82085    2.00000
  217     -6.82085    2.00000
  218     -6.82085    2.00000
  219     -6.81637    2.00000
  220     -6.81637    2.00000
  221     -6.81637    2.00000
  222     -6.79101    2.00000
  223     -6.79101    2.00000
  224     -6.79101    2.00000
  225     -6.78935    2.00000
  226     -6.78935    2.00000
  227     -6.78935    2.00000
  228     -6.75369    2.00000
  229     -6.74462    2.00000
  230     -6.74462    2.00000
  231     -6.74462    2.00000
  232     -6.71063    2.00000
  233     -6.71063    2.00000
  234     -6.70782    2.00000
  235     -6.63692    2.00000
  236     -6.63692    2.00000
  237     -6.63692    2.00000
  238     -6.58745    2.00000
  239     -6.58745    2.00000
  240     -6.56247    2.00000
  241     -6.56247    2.00000
  242     -6.56247    2.00000
  243     -6.55302    2.00000
  244     -6.55302    2.00000
  245     -6.55302    2.00000
  246     -6.53342    2.00000
  247     -6.53342    2.00000
  248     -6.53342    2.00000
  249     -6.51238    2.00000
  250     -6.51238    2.00000
  251     -6.51238    2.00000
  252     -6.50831    2.00000
  253     -6.50831    2.00000
  254     -6.46320    2.00000
  255     -6.46320    2.00000
  256     -6.46320    2.00000
  257     -6.42234    2.00000
  258     -6.42234    2.00000
  259     -6.42234    2.00000
  260     -6.41762    2.00000
  261     -6.41762    2.00000
  262     -6.41762    2.00000
  263     -6.41251    2.00000
  264     -6.41251    2.00000
  265     -6.41251    2.00000
  266     -6.38809    2.00000
  267     -6.37770    2.00000
  268     -6.37770    2.00000
  269     -6.35807    2.00000
  270     -6.35807    2.00000
  271     -6.34194    2.00000
  272     -6.32692    2.00000
  273     -6.32692    2.00000
  274     -6.32692    2.00000
  275     -6.32618    2.00000
  276     -6.32293    2.00000
  277     -6.19179    2.00000
  278     -6.19179    2.00000
  279     -6.19179    2.00000
  280     -6.00469    2.00000
  281     -6.00469    2.00000
  282     -6.00469    2.00000
  283     -5.97826    2.00000
  284     -5.97826    2.00000
  285     -5.97826    2.00000
  286     -5.93256    2.00000
  287     -5.93256    2.00000
  288     -5.77581    2.00000
  289     -5.55478    2.00000
  290     -5.55478    2.00000
  291     -5.55478    2.00000
  292     -5.06302    1.99999
  293     -5.06302    1.99999
  294     -5.06302    1.99999
  295     -4.50610    1.99853
  296     -4.50610    1.99853
  297     -4.34399    1.99260
  298     -4.34399    1.99260
  299     -4.34399    1.99260
  300     -3.94280    1.65958
  301     -3.94280    1.65958
  302     -3.94280    1.65958
  303     -3.40010    0.04197
  304     -3.06308    0.00147
  305     -3.06308    0.00147
  306     -3.06308    0.00147
  307     -2.35980    0.00000
  308     -2.35980    0.00000
  309     -2.35980    0.00000
  310     -2.25419    0.00000
  311     -2.25419    0.00000
  312     -2.18183    0.00000
  313     -2.18183    0.00000
  314     -2.18183    0.00000
  315     -2.08755    0.00000
  316     -2.02015    0.00000
  317     -2.02015    0.00000
  318     -0.96745    0.00000
  319     -0.96745    0.00000
  320     -0.96745    0.00000
  321     -0.87803    0.00000
  322     -0.87803    0.00000
  323     -0.87803    0.00000
  324     -0.75201    0.00000
  325     -0.75201    0.00000
  326     -0.75201    0.00000
  327     -0.62858    0.00000
  328     -0.13240    0.00000
  329     -0.13240    0.00000

Fermi level: -3.78438

Gap: 0.543 eV
Transition (v -> c):
  (s=0, k=0, n=302, [0.00, 0.00, 0.00]) -> (s=0, k=0, n=303, [0.00, 0.00, 0.00])
